fix                    fLANG all langevin 1.0 1.0 1.0 5
fix                    fNVE all nve

        ##======================================##
        ## Analysis
        ##======================================##

thermo                 10000
thermo_style           custom step temp press etotal epair
thermo_modify          flush yes
timestep               0.005

        ##======================================##
        ## Equilibration before output
        ##======================================##


        ##======================================##
        ## Run with output
        ##======================================##

fix enforce_2d all enforce2d
dump                       1 all custom 10000 Results/Movie_2d_mono_eps6_nv200_sd0.2.xyz id type mol x y z q
run                    10000000
Generated 0 of 79800 mixed pair_coeff terms from geometric mixing rule
Neighbor list info ...
  update every 1 steps, delay 1 steps, check yes
  max neighbors/atom: 2000, page size: 100000
  master list distance cutoff = 15.852307
  ghost atom cutoff = 15.852307
  binsize = 7.9261533, bins = 51 51 1
  1 neighbor lists, perpetual/occasional/extra = 1 0 0
  (1) pair cosine/squared, perpetual
      attributes: half, newton on
      pair build: half/bin/newton
      stencil: half/bin/2d
      bin: standard
Per MPI rank memory allocation (min/avg/max) = 7.9 | 7.9 | 7.9 Mbytes
   Step          Temp          Press          TotEng         E_pair    
WARNING: Too many warnings: 60300 vs 100. All future warnings will be suppressed (../thermo.cpp:465)
         0   1              1.5969451      26.877504      0            
     10000   0.98988302     0.0062124987   1.0331184     -0.36438902   
     20000   1.0470742      0.0038237748  -0.17604807    -1.6088443    
     30000   1.0040957     -0.0067455712  -1.6229277     -3.0159023    
     40000   1.021333      -0.0025206555  -2.3610974     -3.7537542    
     50000   0.97667587     0.0096664329  -3.3020881     -4.6386751    
     60000   1.0549473      0.0028090526  -3.9181462     -5.3220429    
     70000   1.0304891     -0.0026406014  -4.6479522     -6.043105     
     80000   0.98748448     0.0016980782  -5.3733021     -6.7099357    
     90000   0.95868464    -0.0037432667  -5.9651878     -7.2368678    
    100000   0.98043848     0.013705178   -6.2114571     -7.530338     
    110000   0.99153399     0.0025582234  -6.4376595     -7.7447028    
    120000   0.95779281    -0.0029384046  -6.6455403     -7.9089866    
    130000   1.0335866      0.0055164719  -6.9837266     -8.3447722    
    140000   0.95154346    -0.0010916748  -7.23403       -8.4867446    
    150000   0.97551003    -0.0046712421  -7.4455        -8.7311486    
    160000   0.99449959    -0.0054837492  -7.6063796     -8.8947785    
    170000   0.99922627    -0.005269075   -7.6757531     -8.9917921    
    180000   1.0055542      0.0067810797  -7.7760255     -9.1180985    
    190000   1.0036277      0.0098097639  -8.0526807     -9.359374     
    200000   1.0008363     -0.0015710803  -8.0790338     -9.3645475    
    210000   1.0350591      0.0086524453  -8.1236088     -9.4547557    
    220000   1.0176761      0.009010887   -8.1412465     -9.4783289    
    230000   1.0283728      0.0096887755  -8.2836312     -9.6135823    
    240000   0.9604734     -0.0021150267  -8.4475048     -9.7246282    
    250000   1.0436206      0.0058498117  -8.7238326     -10.067816    
    260000   1.0048134      0.0015357561  -9.0651912     -10.363384    
    270000   1.0110566     -0.0056165109  -9.1516166     -10.432908    
    280000   1.0129178     -0.0019487621  -9.2464888     -10.562105    
    290000   1.0072314      0.00014705522 -9.4229638     -10.725681    
    300000   0.96723864     0.0064949693  -9.7032393     -10.966376    
    310000   0.98378732    -0.0079263816  -9.6957792     -10.955736    
    320000   1.034982       0.0021334947  -9.6487333     -10.960719    
    330000   1.0195205      0.0045680659  -9.7084632     -10.991907    
    340000   1.0323028      0.010129062   -9.626687      -10.9755      
    350000   0.9703489     -0.0020983445  -9.7789797     -11.027455    
    360000   0.92292832     0.011682101   -9.8786554     -11.08088     
    370000   0.93148296    -0.021651369   -9.9115793     -11.134421    
    380000   1.0206358      0.013059471   -9.9858489     -11.313335    
    390000   0.95180921     0.00778145    -10.226032     -11.449898    
    400000   0.98055789     0.0076159196  -10.192111     -11.447071    
    410000   0.97907108    -0.00095911882 -10.321534     -11.60165     
    420000   1.000466       0.00048797427 -10.338504     -11.616676    
    430000   1.0107737      0.0072258595  -10.332445     -11.630532    
    440000   0.94411362    -0.00025264858 -10.463509     -11.677711    
    450000   1.0183344      0.0066491004  -10.832133     -12.135401    
    460000   0.95880321     0.0031548616  -11.016652     -12.244998    
    470000   0.98128262     0.011308525   -10.941346     -12.231714    
    480000   0.98889626     0.0079477926  -10.935632     -12.241358    
    490000   0.9891683      0.0035371656  -10.959055     -12.222242    
    500000   1.0139995      0.0043851314  -11.277405     -12.593711    
    510000   0.98223519    -0.0034139469  -11.356095     -12.609783    
    520000   0.99999131     0.0026630934  -11.493889     -12.793439    
    530000   1.011697      -0.010790193   -11.564801     -12.834264    
    540000   1.0380679      0.0075267744  -11.688572     -12.988729    
    550000   1.005052      -0.00046193606 -11.713412     -13.017374    
    560000   0.93715627    -0.00066171749 -11.977051     -13.178715    
    570000   0.98231222     0.0099003527  -11.970957     -13.20307     
    580000   0.94595677     0.00088581786 -11.979506     -13.204068    
    590000   1.0236815      0.0024160496  -11.885953     -13.214678    
    600000   1.0210895      0.0077250797  -11.914814     -13.199737    
    610000   1.0018606     -0.0044132667  -11.895607     -13.182396    
    620000   1.0126875      0.0040864358  -11.918946     -13.224042    
    630000   1.0305551      0.0015531675  -11.99927      -13.29185     
    640000   1.0070607      0.01263311    -12.027654     -13.32435     
    650000   0.98880331    -0.011550165   -12.103027     -13.389945    
    660000   0.96937575    -0.0030342614  -12.099399     -13.356112    
    670000   1.0609179     -0.0092212657  -12.100757     -13.444281    
    680000   0.94825307     0.0014588     -12.290388     -13.508155    
    690000   1.0249788      0.0017329679  -12.342326     -13.640066    
    700000   0.94900062     0.006100081   -12.486584     -13.706671    
    710000   0.99234426    -0.0053668916  -12.520008     -13.781217    
    720000   1.0207994      0.0013155906  -12.640296     -13.958572    
    730000   0.97822408     0.016864993   -13.053267     -14.275282    
    740000   1.0459376      0.010200468   -13.454915     -14.751248    
    750000   1.002818       0.003377704   -13.569479     -14.823681    
    760000   0.99888208     0.0040221061  -13.5854       -14.836287    
    770000   0.93869676    -0.0057915777  -13.633643     -14.822508    
    780000   0.9842239     -0.0021717988  -13.646094     -14.8616      
    790000   0.99866231    -0.009070626   -13.588257     -14.825141    
    800000   0.99316221     0.0056309574  -13.560681     -14.805668    
    810000   1.0263646      0.0098423615  -13.558896     -14.86677     
    820000   1.0126264      0.0061481313  -13.586552     -14.861777    
    830000   1.0383777     -0.0097720189  -13.528909     -14.841441    
    840000   1.0026911      0.0056292686  -13.561744     -14.823758    
    850000   1.0158523     -0.0021002995  -13.492972     -14.786366    
    860000   1.0532474     -0.00027744124 -13.54951      -14.849124    
    870000   1.0340562     -0.012490857   -13.563503     -14.847832    
    880000   0.98465728     0.017339965   -13.619274     -14.854826    
    890000   0.92379811     0.0044067765  -13.678475     -14.840763    
    900000   1.0085738     -0.00089526315 -13.557028     -14.828741    
    910000   0.94660004    -0.0077731321  -13.648106     -14.845062    
    920000   1.0345555     -0.0014061267  -13.568219     -14.858248    
    930000   1.0134922      0.00050254808 -13.58358      -14.867383    
    940000   0.95652181     0.0031433238  -13.595792     -14.832627    
    950000   0.9813048     -0.0055973038  -13.598558     -14.850607    
    960000   1.0537182     -0.0036794684  -13.544189     -14.862694    
    970000   1.0106245     -0.0013132112  -13.582252     -14.862446    
    980000   0.99905528    -0.0085356323  -13.650606     -14.919525    
    990000   0.99731555     0.0040914084  -13.595914     -14.862211    
   1000000   0.96898088    -0.0045828126  -13.618883     -14.851844    
   1010000   0.99059712     0.0052924888  -13.639851     -14.885407    
   1020000   0.97641742     0.01399552    -13.879817     -15.088743    
   1030000   1.0403446     -0.021270602   -13.803762     -15.120575    
   1040000   1.0312002     -0.0027243364  -13.848801     -15.139573    
   1050000   0.95804852     0.013487806   -13.895873     -15.122751    
   1060000   0.97820094    -0.0033180865  -13.889905     -15.128878    
   1070000   0.99943509     0.004410467   -13.852784     -15.110799    
   1080000   1.0477367     -0.0078028301  -13.823084     -15.106425    
   1090000   0.99566635    -0.0028277002  -13.913535     -15.144336    
   1100000   0.94819753     0.0029402523  -13.8722       -15.077106    
   1110000   1.0177812      0.018602584   -13.850488     -15.132911    
   1120000   1.1001683      0.027859832   -13.779154     -15.132288    
   1130000   1.0088116      0.0020335304  -13.864439     -15.126689    
   1140000   1.0391414     -0.002949838   -13.851845     -15.14429     
   1150000   1.044502       0.0053136303  -13.82342      -15.129936    
   1160000   0.97846564     0.0098360226  -13.899594     -15.157793    
   1170000   1.0004592     -0.0030177826  -13.874998     -15.116224    
   1180000   1.0033756     -0.0060009722  -13.852578     -15.115371    
   1190000   0.95863692    -0.0019261267  -13.86933      -15.100334    
   1200000   0.96541838    -0.0025796773  -13.937222     -15.148543    
   1210000   1.010086       0.0081854573  -13.894418     -15.160822    
   1220000   1.0069031      0.01551839    -13.900194     -15.165526    
   1230000   1.002836      -0.0051103039  -13.854509     -15.112228    
   1240000   1.0357414     -0.00050289701 -13.874689     -15.162435    
   1250000   1.0444442     -0.011237287   -13.90274      -15.195624    
   1260000   1.0564975      0.00014820507 -13.843832     -15.160604    
   1270000   0.95481958     0.0022868212  -13.988746     -15.194314    
   1280000   1.0260358      0.0091294425  -13.874388     -15.159036    
   1290000   1.0053365      0.0041078849  -13.889992     -15.159028    
   1300000   0.97308913     0.0099441971  -13.929655     -15.177287    
   1310000   0.98358997    -0.001344805   -13.936698     -15.182864    
   1320000   0.9959816      0.0069012824  -13.88401      -15.153018    
   1330000   1.0037497     -0.0016879205  -13.926021     -15.184219    
   1340000   1.0459921     -0.0018204972  -13.882044     -15.184775    
   1350000   0.99523544    -0.0087402313  -13.969359     -15.197446    
   1360000   0.97385393     0.0050088651  -13.901551     -15.16427     
   1370000   1.0049567      0.0049699471  -13.916907     -15.163174    
   1380000   0.98280091     0.011428374   -13.927653     -15.189122    
   1390000   0.98350533     0.0092913008  -13.912982     -15.140804    
   1400000   1.0096772     -0.012002649   -13.911086     -15.178605    
   1410000   0.98483856     0.0013960375  -13.90043      -15.154918    
   1420000   0.95801572     0.00077445906 -13.952732     -15.15842     
   1430000   1.0034601     -0.0074410268  -13.90006      -15.171275    
   1440000   1.0021711     -0.0098057657  -14.027946     -15.297238    
   1450000   1.0414566     -0.0032208173  -14.098714     -15.369695    
   1460000   1.0179166      0.0018319071  -14.076352     -15.357125    
   1470000   1.0358992      0.01119975    -14.137006     -15.41321     
   1480000   1.053265       0.0033222335  -14.117124     -15.411117    
   1490000   1.0183204      0.0094816308  -14.161927     -15.434198    
   1500000   1.0327488      0.011647707   -14.20969      -15.486306    
   1510000   0.9638447     -0.0023947499  -14.227043     -15.442071    
   1520000   1.0292044     -0.0022106214  -14.159151     -15.461618    
   1530000   1.0360762     -0.0034569952  -14.230976     -15.518179    
   1540000   1.0380236     -0.01264977    -14.161345     -15.453028    
   1550000   1.0439825      0.0024759132  -14.137308     -15.434151    
   1560000   1.0221472      0.0012081205  -14.178455     -15.462253    
   1570000   0.99394469     0.0015652133  -14.272678     -15.504641    
   1580000   0.96415287    -0.0089659105  -14.243503     -15.456412    
   1590000   1.0066465      0.013149926   -14.200397     -15.452466    
   1600000   0.99084405    -0.0047850191  -14.208736     -15.465941    
   1610000   1.0015892     -0.0022879123  -14.197349     -15.439192    
   1620000   0.97838379     0.010377652   -14.200426     -15.44629     
   1630000   0.97458833     0.0049236216  -14.235277     -15.473292    
   1640000   1.0146495      0.021281568   -14.190174     -15.451127    
   1650000   0.9843142     -0.014070213   -14.229784     -15.447872    
   1660000   0.99996451    -0.0012274407  -14.203599     -15.436674    
   1670000   0.99715032     0.0048532284  -14.184575     -15.43699     
   1680000   0.93974377     0.020018353   -14.278976     -15.469601    
   1690000   1.0378012      0.016184821   -14.172326     -15.465134    
   1700000   1.0127505      0.0087279321  -14.210921     -15.481871    
   1710000   0.99422881    -0.0072270057  -14.195437     -15.461725    
   1720000   0.99685936     0.0023083064  -14.21733      -15.4674      
   1730000   1.0161856      5.2939679e-05 -14.167038     -15.444761    
   1740000   0.99924948     0.0084182509  -14.165677     -15.443679    
   1750000   1.018355       0.012505702   -14.212158     -15.482876    
   1760000   1.0612255      0.016071114   -14.147623     -15.456305    
   1770000   1.0125316      0.0054174025  -14.170931     -15.453004    
   1780000   1.0072208      0.019910743   -14.239394     -15.483511    
   1790000   0.97680943     0.013573205   -14.217658     -15.45978     
   1800000   0.98330614     0.0018836509  -14.224175     -15.453855    
   1810000   0.98074841     0.002213152   -14.224316     -15.466085    
   1820000   1.0461638      0.01557564    -14.202662     -15.504157    
   1830000   1.0431104      0.01216037    -14.165587     -15.463844    
   1840000   0.98300091     0.0021461121  -14.196373     -15.449323    
   1850000   0.99402356     0.0058692722  -14.257253     -15.487853    
   1860000   0.99429885     0.0042467784  -14.221492     -15.480227    
   1870000   1.0043762      0.0083082876  -14.188191     -15.458208    
   1880000   1.0158272      0.0076355259  -14.188325     -15.452323    
   1890000   0.98483096     0.012295669   -14.206517     -15.461874    
   1900000   1.0164622      0.01350123    -14.188178     -15.463902    
   1910000   0.99231488     0.00096385231 -14.225447     -15.46086     
   1920000   0.98084676    -0.019228532   -14.2224       -15.46833     
   1930000   1.0118919      0.00130713    -14.225561     -15.477446    
   1940000   1.0301178      0.0085635659  -14.189915     -15.484152    
   1950000   1.016512      -0.016279734   -14.239898     -15.490452    
   1960000   1.0101815      0.0070958098  -14.18318      -15.456787    
   1970000   0.97351929    -0.01639075    -14.197894     -15.429776    
   1980000   0.99090752     0.0029172117  -14.20169      -15.474184    
   1990000   0.98821353     0.0032251316  -14.190697     -15.446201    
   2000000   1.0021345     -0.0058359311  -14.24278      -15.4741      
   2010000   1.0341868     -0.0066252604  -14.164236     -15.452813    
   2020000   1.050221       0.0037634747  -14.091294     -15.411153    
   2030000   0.99488089     0.0081969813  -14.306274     -15.51314     
   2040000   0.9828808      0.0064284737  -14.266283     -15.488973    
   2050000   0.98893429    -0.0069192677  -14.277464     -15.478111    
   2060000   0.98506853     0.0016276367  -14.195595     -15.444852    
   2070000   1.0514522     -0.0094440743  -14.154318     -15.459392    
   2080000   0.97783827     0.014772969   -14.242657     -15.480587    
   2090000   1.0097494     -0.0038908394  -14.164646     -15.458181    
   2100000   1.0004033     -0.009385037   -14.214897     -15.471072    
   2110000   1.0399791      0.0017007162  -14.132255     -15.438834    
   2120000   0.97455055     0.0001767877  -14.243832     -15.453931    
   2130000   1.032819       0.020194065   -14.204455     -15.476034    
   2140000   1.0453219     -0.0056873865  -14.2371       -15.517289    
   2150000   0.95343509    -0.0080501707  -14.267237     -15.478056    
   2160000   0.96370489     0.01731225    -14.202427     -15.44982     
   2170000   1.0084448      0.005694427   -14.193213     -15.460326    
   2180000   1.0453722      0.011148018   -14.17169      -15.465073    
   2190000   1.0068501     -0.0038238283  -14.143463     -15.428167    
   2200000   0.98913157    -0.010299999   -14.209952     -15.454744    
   2210000   0.9847604      0.00090058715 -14.240348     -15.4738      
   2220000   1.0034018      0.008311995   -14.215661     -15.459348    
   2230000   0.97991252    -0.013156848   -14.223733     -15.462461    
   2240000   1.0258207      0.0015727291  -14.193544     -15.465665    
   2250000   1.0604407     -0.008114047   -14.131316     -15.445336    
   2260000   0.97967549    -0.0028211839  -14.232066     -15.483827    
   2270000   1.0333965     -0.0080739623  -14.199954     -15.491327    
   2280000   1.0743737      0.0017352143  -14.079698     -15.433886    
   2290000   1.0414003     -0.0038315835  -14.203966     -15.478298    
   2300000   1.0108257      0.0056339897  -14.221497     -15.48432     
   2310000   1.0074819     -0.010581369   -14.199115     -15.464719    
   2320000   0.98289221    -0.016588071   -14.203813     -15.444086    
   2330000   1.053077       0.0056266825  -14.158124     -15.475401    
   2340000   0.98460017     0.0040271534  -14.244127     -15.515295    
   2350000   0.99021012     0.0014310925  -14.324298     -15.598089    
   2360000   1.0213253     -0.0027109302  -14.350801     -15.60371     
   2370000   1.012778       0.0071908434  -14.328819     -15.621107    
   2380000   1.0076588     -0.0071954668  -14.379821     -15.635929    
   2390000   1.0284933      0.0055164384  -14.312253     -15.601953    
   2400000   1.0245176      0.00106834    -14.304811     -15.577568    
   2410000   0.97633191    -0.0031326305  -14.398427     -15.608434    
   2420000   0.94589245    -0.0080543208  -14.423967     -15.614298    
   2430000   0.96261178    -0.0011711407  -14.414722     -15.626861    
   2440000   0.97250226    -0.0068173612  -14.344044     -15.57974     
   2450000   0.95380652    -0.0059272365  -14.396894     -15.614874    
   2460000   0.94085954    -0.0093972354  -14.400553     -15.605947    
   2470000   0.92379685    -0.00055911242 -14.468122     -15.615873    
   2480000   0.94369941     0.0075368272  -14.447113     -15.628811    
   2490000   0.97975136    -0.0091816215  -14.394346     -15.607945    
   2500000   1.0290867     -0.00014457157 -14.350067     -15.618862    
   2510000   0.94724924     0.0088739587  -14.384298     -15.585554    
   2520000   0.99202351    -0.0034436827  -14.354045     -15.587496    
   2530000   1.0008967     -0.0097374918  -14.346889     -15.606041    
   2540000   0.98204092    -0.0052847501  -14.346525     -15.587203    
   2550000   0.96606439    -0.0029813405  -14.395007     -15.59967     
   2560000   1.052916       0.011311944   -14.300171     -15.608096    
   2570000   0.99118966     0.0097562901  -14.364584     -15.610182    
   2580000   0.99601055     0.0055355318  -14.356839     -15.594807    
   2590000   1.019888       0.0015027737  -14.324837     -15.590764    
   2600000   0.99454657     0.013353875   -14.356533     -15.625046    
   2610000   0.97919482     0.0012941474  -14.347413     -15.591225    
   2620000   1.0705944     -0.0051019905  -14.245226     -15.589452    
   2630000   1.0071869     -0.0042394598  -14.308231     -15.584025    
   2640000   1.0581563      0.021156314   -14.302929     -15.608471    
   2650000   0.97777886    -0.0068116529  -14.344351     -15.590864    
   2660000   1.0222069      0.0039067598  -14.326043     -15.597311    
   2670000   1.0040906      0.0026977689  -14.329918     -15.585174    
   2680000   1.0134663      0.0073677227  -14.332328     -15.614276    
   2690000   1.0116289     -0.0015827411  -14.351711     -15.604259    
   2700000   1.0208767      0.0018069335  -14.277444     -15.578366    
   2710000   1.0083913      0.0087189737  -14.380025     -15.627074    
   2720000   0.99988539     0.0070314948  -14.334987     -15.574391    
   2730000   1.034379      -0.0040508384  -14.356226     -15.63772     
   2740000   1.0124157      0.0058809132  -14.337727     -15.61283     
   2750000   0.99810712     0.003392946   -14.340475     -15.601223    
   2760000   1.0174507      0.0010800133  -14.334008     -15.622587    
   2770000   0.98050021    -0.0068510733  -14.32757      -15.56876     
   2780000   0.98582689     0.0023020438  -14.350045     -15.594782    
   2790000   0.94525       -0.00081882308 -14.432707     -15.633864    
   2800000   0.98616688     0.0030969866  -14.367972     -15.609717    
   2810000   0.95810977    -0.0019401877  -14.38625      -15.585869    
   2820000   1.0444714     -0.016261168   -14.282463     -15.595269    
   2830000   0.99438238    -0.0032786811  -14.349128     -15.614806    
   2840000   0.99758663     0.0039330687  -14.362451     -15.613142    
   2850000   0.94238668    -0.0051784502  -14.370751     -15.578238    
   2860000   0.99010827     0.0064987882  -14.415728     -15.636587    
   2870000   0.97349088    -0.00067078377 -14.359949     -15.591474    
   2880000   0.9705742      0.0070768798  -14.395889     -15.614833    
   2890000   0.97851276    -0.011673071   -14.344694     -15.575169    
   2900000   1.0298523     -0.0053117356  -14.341886     -15.629133    
   2910000   0.9975653      0.0044133664  -14.334255     -15.605815    
   2920000   0.97773728    -0.0027421525  -14.38905      -15.605303    
   2930000   1.0227754     -0.0079167398  -14.320396     -15.611311    
   2940000   0.99735856     0.011105823   -14.280981     -15.543372    
   2950000   1.0523487     -0.003619172   -14.292235     -15.609546    
   2960000   0.98966438     0.012264908   -14.36028      -15.591864    
   2970000   0.98348243     0.0010141751  -14.393166     -15.62062     
   2980000   0.99884076    -0.010477481   -14.310534     -15.558936    
   2990000   1.025475       0.011189028   -14.319254     -15.590103    
   3000000   0.99768635     0.0089556153  -14.379734     -15.618376    
   3010000   1.0206078     -0.0032154141  -14.291323     -15.584513    
   3020000   0.99915893     0.015574159   -14.378845     -15.624695    
   3030000   0.99300791     0.0015954027  -14.326465     -15.572292    
   3040000   1.026759       0.0027665817  -14.337177     -15.608181    
   3050000   0.99417904    -0.0049765895  -14.372466     -15.622142    
   3060000   0.9917398     -0.0047490534  -14.383033     -15.637091    
   3070000   0.97474125     0.013252566   -14.40339      -15.604208    
   3080000   0.98126963     0.00076034337 -14.361597     -15.579436    
   3090000   0.96692685    -0.015243472   -14.376969     -15.59786     
   3100000   1.0109957      0.0054334509  -14.350762     -15.606917    
   3110000   1.048493       0.00064564511 -14.290289     -15.601477    
   3120000   1.0411693      0.0022916925  -14.28081      -15.564273    
   3130000   1.0401714      0.0050349296  -14.421891     -15.705692    
   3140000   0.9678789     -0.013129858   -14.461792     -15.712846    
   3150000   0.99716164    -0.0017956511  -14.464074     -15.728032    
   3160000   0.980039      -0.001247137   -14.5156       -15.736036    
   3170000   0.9448107      0.0037687421  -14.502938     -15.713287    
   3180000   1.0039618      0.011839595   -14.484151     -15.725536    
   3190000   1.0246543      0.0052433409  -14.430021     -15.718702    
   3200000   0.95405223     0.014061211   -14.555692     -15.760023    
   3210000   1.0540463      0.00011493477 -14.394582     -15.720038    
   3220000   0.97971519    -0.0019114874  -14.517567     -15.740457    
   3230000   1.0167425      0.009154141   -14.477222     -15.742188    
   3240000   1.0213644     -0.0023857358  -14.469726     -15.749817    
   3250000   1.0108175     -0.0047330827  -14.4672       -15.738529    
   3260000   0.98606192    -0.0011523707  -14.509799     -15.732564    
   3270000   0.96637069    -0.0049382007  -14.550949     -15.763324    
   3280000   1.0257549     -0.017606554   -14.444524     -15.732874    
   3290000   0.97082498     0.0051452074  -14.520363     -15.729417    
   3300000   1.0368941     -0.012071696   -14.467967     -15.752104    
   3310000   0.98893278     0.023360943   -14.466432     -15.701939    
   3320000   1.0249699     -0.0034114459  -14.464312     -15.737141    
   3330000   1.0292161      0.00710225    -14.409833     -15.705035    
   3340000   1.0218695     -0.0036472768  -14.437049     -15.737014    
   3350000   0.99246978     0.013643524   -14.533153     -15.768339    
   3360000   1.0020119     -9.3044315e-05 -14.504977     -15.73607     
   3370000   0.93255555     0.00086692909 -14.55206      -15.731208    
   3380000   1.0262006      0.0040119976  -14.423493     -15.704864    
   3390000   1.0211774      0.00063577529 -14.432571     -15.716225    
   3400000   0.99824897    -0.0024865947  -14.516449     -15.756008    
   3410000   1.0135088     -0.0057175376  -14.445655     -15.730773    
   3420000   0.9953191     -0.020956239   -14.46968      -15.723221    
   3430000   1.0318334     -0.0017924509  -14.491351     -15.762008    
   3440000   1.024494       0.0082858651  -14.463167     -15.737914    
   3450000   1.0067895     -0.00082491209 -14.464947     -15.741723    
   3460000   0.98124759     0.0014864848  -14.492495     -15.733371    
   3470000   0.97945863     0.010490556   -14.497773     -15.746778    
   3480000   1.0353939      0.011272158   -14.413331     -15.706216    
   3490000   1.0415307      0.0016001894  -14.465133     -15.731889    
   3500000   1.0246441      0.0073153443  -14.437787     -15.712645    
   3510000   1.0592183     -0.0036770919  -14.445556     -15.742969    
   3520000   1.0084247      0.0028050948  -14.435822     -15.703101    
   3530000   1.0098489     -0.0065998771  -14.420697     -15.694666    
   3540000   1.0728937     -0.0096621717  -14.428801     -15.757904    
   3550000   1.0055243      0.014942294   -14.519123     -15.765615    
   3560000   1.045744      -0.002398403   -14.366675     -15.701806    
   3570000   1.014689       0.0061505788  -14.51649      -15.765803    
   3580000   0.98614517     0.0027241305  -14.499985     -15.720248    
   3590000   0.95893397    -0.0014424608  -14.501032     -15.732603    
   3600000   0.96951354     0.00035480259 -14.446121     -15.687375    
   3610000   0.98522905     0.0040755446  -14.485268     -15.717501    
   3620000   1.0071104      0.018161011   -14.502962     -15.759745    
   3630000   0.99991503    -0.0067124638  -14.443494     -15.717108    
   3640000   0.9997167      0.012093367   -14.476778     -15.726142    
   3650000   1.0701519      0.0066525723  -14.395329     -15.7398      
   3660000   1.0368052      0.0094273143  -14.421079     -15.705953    
   3670000   0.9815434      0.0064428126  -14.50418      -15.736186    
   3680000   0.96141487    -0.010466399   -14.468732     -15.704305    
   3690000   1.0107409     -0.0047290644  -14.467806     -15.742797    
   3700000   1.0220563      0.0090259737  -14.431094     -15.702419    
   3710000   0.99340355     0.0041347527  -14.475732     -15.723944    
   3720000   1.0748582      0.016075309   -14.411065     -15.733571    
   3730000   0.97227595     0.0012881717  -14.509989     -15.738228    
   3740000   1.0357608      0.0031084766  -14.428675     -15.714917    
   3750000   1.0548618      0.0011042448  -14.423415     -15.726751    
   3760000   1.0139822     -0.0021022997  -14.48833      -15.732957    
   3770000   1.0042203      0.0058993735  -14.461142     -15.717101    
   3780000   0.98439965    -0.00065221123 -14.534531     -15.763836    
   3790000   1.0123695     -0.0076880038  -14.468513     -15.737313    
   3800000   0.99918762    -0.010289589   -14.478007     -15.721018    
   3810000   1.0874929      0.00096631161 -14.395809     -15.732063    
   3820000   0.95632416     0.0044551069  -14.530375     -15.725958    
   3830000   0.9932609      0.0046747392  -14.499553     -15.747529    
   3840000   0.99113302     0.0071522895  -14.466128     -15.709082    
   3850000   1.0195896      0.01069586    -14.479698     -15.726831    
   3860000   1.1247665      0.002852202   -14.334364     -15.715278    
   3870000   0.99585503    -0.010261898   -14.472674     -15.727209    
   3880000   0.9774015     -0.0024983776  -14.484881     -15.723744    
   3890000   0.97741469     0.0063500635  -14.502151     -15.731204    
   3900000   1.0319483      0.0023508369  -14.445072     -15.748034    
   3910000   1.0335097      0.013067855   -14.384233     -15.713034    
   3920000   1.0121481     -0.005458      -14.490181     -15.754775    
   3930000   0.994033      -0.0027242112  -14.456479     -15.713766    
   3940000   0.94423022     0.0036920407  -14.549199     -15.729456    
   3950000   1.0341984      0.0089336193  -14.494775     -15.766629    
   3960000   0.9868457      0.0016604771  -14.4697       -15.707524    
   3970000   0.98310925    -0.011015629   -14.43182      -15.684959    
   3980000   0.97698286    -0.0046316233  -14.486073     -15.723503    
   3990000   1.0100214      0.0043631661  -14.470139     -15.725605    
   4000000   1.002966      -0.0079514683  -14.432015     -15.697935    
   4010000   1.0572208     -0.0084147392  -14.430707     -15.741202    
   4020000   0.97781719    -0.0092509199  -14.521366     -15.745587    
   4030000   0.99234317     0.005326983   -14.550982     -15.768478    
   4040000   1.0319583     -0.0058864914  -14.440805     -15.716979    
   4050000   0.98311772     0.010855618   -14.513594     -15.739602    
   4060000   0.98257004    -0.010923473   -14.48368      -15.727867    
   4070000   1.0188168      0.0096865453  -14.494577     -15.742169    
   4080000   0.99352632     0.001427875   -14.489318     -15.734404    
   4090000   1.051296       0.0030382503  -14.463704     -15.764583    
   4100000   1.0074192     -0.011050997   -14.493687     -15.736652    
   4110000   0.94002744    -0.00064315659 -14.587571     -15.77356     
   4120000   1.0186438     -0.003330204   -14.496899     -15.753508    
   4130000   0.97230907    -0.0032910888  -14.545261     -15.767231    
   4140000   1.0180457     -0.00024810003 -14.480837     -15.752404    
   4150000   0.96998244    -0.0064497791  -14.492898     -15.717041    
   4160000   1.0997253      0.014907832   -14.392328     -15.735807    
   4170000   1.0015896      0.0044795731  -14.433795     -15.704339    
   4180000   1.017854       0.0014282153  -14.445214     -15.726034    
   4190000   1.0412499      0.0033315146  -14.460807     -15.765464    
   4200000   0.98841481     0.0038294044  -14.42068      -15.670059    
   4210000   1.0852075      0.0026715871  -14.375576     -15.714372    
   4220000   1.0073658      0.011871931   -14.42607      -15.686883    
   4230000   1.004253       0.00109001    -14.447633     -15.726019    
   4240000   1.0502962      0.002497754   -14.448257     -15.727767    
   4250000   0.96900499    -0.0094527347  -14.501101     -15.705025    
   4260000   1.0232813     -0.0055010257  -14.499112     -15.76079     
   4270000   1.0155087      0.018075712   -14.436291     -15.715386    
   4280000   1.0220486     -0.0099356939  -14.489207     -15.760965    
   4290000   0.99406038    -0.0011749456  -14.497277     -15.735394    
   4300000   0.98290133     0.0045381618  -14.483635     -15.730645    
   4310000   1.00556        0.0088754812  -14.493392     -15.72686     
   4320000   1.0022952      0.0095564627  -14.457753     -15.734511    
   4330000   0.94943188    -0.0010286306  -14.558465     -15.724548    
   4340000   1.0065943     -0.0078507683  -14.512356     -15.762585    
   4350000   0.9976304      0.0066393112  -14.452438     -15.701886    
   4360000   1.0071465      0.011471483   -14.435858     -15.712186    
   4370000   0.99334258    -0.0065388098  -14.519899     -15.743583    
   4380000   0.94795392    -0.0057476311  -14.545159     -15.754152    
   4390000   0.98607347     0.014314795   -14.442419     -15.698324    
   4400000   1.0303043     -0.0024960828  -14.456936     -15.729869    
   4410000   0.95216666     0.00010062619 -14.534264     -15.73798     
   4420000   1.0394383     -0.0065845046  -14.428373     -15.727169    
   4430000   1.0238674      0.0034306418  -14.448172     -15.717304    
   4440000   0.97436769    -0.0056576981  -14.550237     -15.762277    
   4450000   0.99888574    -0.00334194    -14.469317     -15.711514    
   4460000   1.0409185     -0.0042427055  -14.440691     -15.724423    
   4470000   1.077839      -0.0043980961  -14.466401     -15.777248    
   4480000   0.98442404    -0.005626685   -14.497547     -15.73302     
   4490000   1.048303      -0.001171222   -14.504124     -15.777502    
   4500000   0.9871889      0.007663752   -14.46254      -15.708395    
   4510000   1.0585309     -0.0017291944  -14.438895     -15.735352    
   4520000   1.0155571     -0.009969395   -14.453151     -15.733334    
   4530000   0.96130279    -0.0054758764  -14.503986     -15.723714    
   4540000   0.99317557     0.0053806313  -14.511875     -15.742466    
   4550000   1.0069592     -0.014927998   -14.432509     -15.711041    
   4560000   0.98163638     0.005975374   -14.457398     -15.716826    
   4570000   1.0427884     -0.0013385185  -14.435958     -15.719162    
   4580000   1.0098175      0.0062661642  -14.495016     -15.738233    
   4590000   1.0172119      0.015712432   -14.496686     -15.738334    
   4600000   0.98538209     0.0027668324  -14.46165      -15.70019     
   4610000   0.99281588     0.010591845   -14.48614      -15.733489    
   4620000   1.0148194     -0.0064671353  -14.505834     -15.763517    
   4630000   1.0135429     -0.00012672241 -14.440862     -15.716167    
   4640000   1.0011524     -0.0016953885  -14.45862      -15.708765    
   4650000   1.0150459      0.0052514357  -14.434785     -15.690268    
   4660000   1.0013527     -0.0066966206  -14.460527     -15.724921    
   4670000   1.0218377     -0.010210678   -14.446862     -15.743714    
   4680000   1.0170831      0.008443398   -14.485609     -15.743981    
   4690000   0.99100704    -0.00733417    -14.535385     -15.76376     
   4700000   0.96442624     0.00099032483 -14.493183     -15.701293    
   4710000   0.97355582     0.010175303   -14.506591     -15.73144     
   4720000   0.99246082    -0.0046357468  -14.468473     -15.696057    
   4730000   1.0033488      0.005972634   -14.466094     -15.713997    
   4740000   0.99076254    -0.00059961539 -14.48572      -15.731165    
   4750000   0.9657644      0.0017910911  -14.57057      -15.774798    
   4760000   0.98135031     0.00046168804 -14.494856     -15.722235    
   4770000   0.95954601     0.0086998313  -14.529726     -15.728763    
   4780000   0.98302206    -0.016628919   -14.501292     -15.727176    
   4790000   0.9897194      0.0067784521  -14.470217     -15.705322    
   4800000   0.99028737    -0.0066705654  -14.516713     -15.765936    
   4810000   1.0063452      0.0052554083  -14.479339     -15.745731    
   4820000   1.0618086      0.0058859512  -14.404552     -15.718009    
   4830000   1.0257133     -0.0012383525  -14.444328     -15.728425    
   4840000   0.9984316     -0.01264763    -14.495286     -15.734383    
   4850000   1.0832403     -0.0038133417  -14.376511     -15.720973    
   4860000   0.97598139     0.0038570448  -14.486684     -15.733804    
   4870000   0.9562296      0.0053472093  -14.50988      -15.713637    
   4880000   1.019618      -0.0055038051  -14.416341     -15.702292    
   4890000   0.96348279    -0.0039030504  -14.531753     -15.739487    
   4900000   1.0079321      0.00039569705 -14.455811     -15.709832    
   4910000   0.97608939     0.0048372405  -14.48455      -15.716287    
   4920000   1.0018564     -0.0062849214  -14.468223     -15.726287    
   4930000   1.084378      -0.0020657125  -14.386547     -15.72526     
   4940000   0.9914743      0.0023951217  -14.50423      -15.744565    
   4950000   0.96431129    -0.00079111702 -14.534688     -15.729803    
   4960000   1.0445457     -0.0086888343  -14.436273     -15.723768    
   4970000   0.96074691    -0.019132155   -14.527491     -15.733876    
   4980000   0.9978775     -0.015954654   -14.466937     -15.707442    
   4990000   0.99022587    -0.0066979345  -14.482146     -15.73501     
   5000000   0.99672712    -0.0063630888  -14.469169     -15.716372    
   5010000   1.005262      -0.0039384802  -14.445752     -15.717669    
   5020000   0.98777138     0.012271829   -14.503547     -15.736027    
   5030000   1.00135        0.021272321   -14.472505     -15.72542     
   5040000   1.0377271      0.0010242473  -14.402953     -15.713991    
   5050000   1.009338       0.0083630488  -14.423175     -15.717548    
   5060000   0.98794506     0.0097585244  -14.509414     -15.758435    
   5070000   1.0010219      0.0053232428  -14.464127     -15.705131    
   5080000   0.98560675    -0.0013953001  -14.508052     -15.71288     
   5090000   1.0040723      0.0075823545  -14.480648     -15.746503    
   5100000   1.0442504     -0.0015419767  -14.436825     -15.719225    
   5110000   0.99439423     0.0094341558  -14.506843     -15.747743    
   5120000   0.98427982     0.0046728838  -14.518611     -15.743732    
   5130000   1.0097258     -0.0024578092  -14.471052     -15.738969    
   5140000   1.0569018      0.0040961272  -14.423541     -15.719022    
   5150000   1.0115222      0.0019451599  -14.473742     -15.719917    
   5160000   0.99696556    -0.011888778   -14.508554     -15.751136    
   5170000   0.96183762     0.0041535351  -14.496517     -15.716208    
   5180000   0.94347713    -0.00736312    -14.490203     -15.682405    
   5190000   0.96124261    -0.012825398   -14.541758     -15.734983    
   5200000   0.98971495     0.004549327   -14.421963     -15.688099    
   5210000   0.97895484     0.006076135   -14.500028     -15.742171    
   5220000   0.99090053     0.0050614865  -14.469386     -15.717294    
   5230000   1.0434934      0.0011467832  -14.452119     -15.744376    
   5240000   0.98295776    -0.002178345   -14.509539     -15.722143    
   5250000   0.98456385     0.0080351636  -14.483281     -15.728982    
   5260000   0.95625287    -0.0011347893  -14.504836     -15.719378    
   5270000   0.98551456     0.0075402428  -14.509141     -15.736487    
   5280000   0.95843032     0.011803758   -14.503215     -15.714421    
   5290000   0.96264794    -0.0030873263  -14.510477     -15.721686    
   5300000   1.0439076      0.006296404   -14.450983     -15.739123    
   5310000   1.0324077     -0.010679853   -14.447863     -15.7322      
   5320000   1.0245123      0.00046933551 -14.533197     -15.77994     
   5330000   1.0112153     -0.012898164   -14.433802     -15.713488    
   5340000   0.99356494    -0.008580469   -14.493517     -15.74295     
   5350000   1.031019      -0.0096511532  -14.456979     -15.735369    
   5360000   0.98634754     0.016746269   -14.433544     -15.704689    
   5370000   0.99082661     0.009328156   -14.465432     -15.717568    
   5380000   1.010207      -0.0024077969  -14.478606     -15.744502    
   5390000   1.0126262      0.0029128749  -14.698481     -15.95876     
   5400000   0.97179691     0.0098790226  -14.783443     -16.027677    
   5410000   0.99855112     0.0019456871  -14.76031      -16.000861    
   5420000   1.0153266     -0.010478319   -14.724762     -15.997422    
   5430000   1.0100386     -0.009551228   -14.708935     -15.9898      
   5440000   1.0216736      0.010822206   -14.748874     -16.023571    
   5450000   1.0144492     -0.0087073924  -14.758536     -16.015663    
   5460000   1.0244966      0.009871172   -14.703352     -15.98064     
   5470000   0.97330101    -0.0072751442  -14.782567     -15.997786    
   5480000   0.95383882    -0.0010544553  -14.824827     -16.021279    
   5490000   1.0228969     -0.0010161984  -14.725839     -15.997033    
   5500000   0.96312701    -0.005455291   -14.731071     -15.973092    
   5510000   0.93653609     0.0019027117  -14.826713     -16.016176    
   5520000   0.97443415    -0.011069573   -14.820845     -16.027899    
   5530000   1.0138945      0.0018441322  -14.773828     -16.036045    
   5540000   1.0214565      0.0026168572  -14.751852     -16.004465    
   5550000   0.99240248     0.0025051074  -14.733177     -16.001824    
   5560000   1.0297375     -0.010600528   -14.720959     -16.006574    
   5570000   1.0363363     -0.0022091197  -14.757197     -16.035153    
   5580000   1.0119535      0.0043625523  -14.694967     -15.986074    
   5590000   1.0315706      0.015212793   -14.753902     -16.040763    
   5600000   1.0048669     -0.0013178974  -14.75104      -16.005385    
   5610000   0.96508367    -0.0070062144  -14.799701     -15.993574    
   5620000   1.0333421      0.0022937524  -14.77788      -16.032683    
   5630000   0.99560791    -0.0089910661  -14.78011      -16.021428    
   5640000   1.051651      -0.003117703   -14.717341     -16.017493    
   5650000   0.9952119     -0.0026435482  -14.762435     -16.018743    
   5660000   1.003621       0.0079233861  -14.697715     -15.961063    
   5670000   0.96489616     0.01560742    -14.821669     -16.021086    
   5680000   1.037184      -0.012060164   -14.735262     -16.023866    
   5690000   1.0139928      0.007049265   -14.758354     -16.022101    
   5700000   0.95689173    -0.013624369   -14.767352     -15.974371    
   5710000   1.0218114     -0.0015910954  -14.712247     -15.976014    
   5720000   1.0086625     -2.3808722e-05 -14.707329     -15.973547    
   5730000   1.0389051      0.0031006413  -14.684866     -15.981633    
   5740000   0.98248378    -0.0020243938  -14.784517     -16.016271    
   5750000   1.0011147      0.0029512087  -14.756288     -16.006409    
   5760000   1.0012825     -0.0080454113  -14.728007     -15.985013    
   5770000   1.012762       0.0044422486  -14.76136      -16.002088    
   5780000   0.97365768    -0.013045345   -14.773928     -16.008903    
   5790000   1.0241625     -0.0090598971  -14.725699     -16.009867    
   5800000   1.0384152     -0.0071614105  -14.707132     -15.985412    
   5810000   0.95746324    -0.0013958682  -14.803494     -16.004326    
   5820000   0.97683813     0.010859109   -14.794252     -16.020045    
   5830000   1.0192554      0.0021692131  -14.790361     -16.044315    
   5840000   1.0049975     -0.011433758   -14.798364     -16.038467    
   5850000   1.0453891      0.0076168511  -14.713659     -16.007588    
   5860000   0.96640079    -0.0048702511  -14.824957     -16.024153    
   5870000   1.003518       0.0032566545  -14.697544     -15.969611    
   5880000   0.97080552    -0.00792085    -14.75123      -15.99544     
   5890000   1.0448072      0.0094117902  -14.733246     -16.013117    
   5900000   0.97046905    -0.0031844946  -14.804161     -16.026416    
   5910000   1.0003068      0.0062041382  -14.725138     -15.97848     
   5920000   1.0001204      0.0085519344  -14.765972     -16.025136    
   5930000   1.0122316      0.0096346342  -14.716969     -15.974368    
   5940000   0.96103124     0.0030762724  -14.768992     -15.976975    
   5950000   1.0069677      0.0070926661  -14.758494     -16.003683    
   5960000   1.0176896      9.1144965e-05 -14.759354     -16.012292    
   5970000   0.97012179     0.017754727   -14.789585     -15.994821    
   5980000   1.028697      -0.010835774   -14.721138     -16.008475    
   5990000   1.0381179      0.00142933    -14.736963     -15.99974     
   6000000   1.0076869     -0.010755406   -14.713581     -15.998038    
   6010000   0.99014446     0.012565882   -14.771139     -16.005039    
   6020000   0.96343537     0.0058835282  -14.774044     -16.000175    
   6030000   1.0126389     -0.0048399838  -14.716408     -15.981256    
   6040000   1.0145681     -0.0029781713  -14.731183     -16.005577    
   6050000   0.97385953    -0.0010112535  -14.782961     -15.981265    
   6060000   0.95716824    -0.0019333612  -14.767749     -15.986239    
   6070000   1.031028      -0.013872775   -14.696325     -15.970982    
   6080000   1.0531597     -0.0014671866  -14.715596     -16.037529    
   6090000   0.96237966     0.0010415118  -14.854836     -16.053176    
   6100000   1.0076381     -0.00048375363 -14.718341     -15.982439    
   6110000   1.0048348     -0.0036426024  -14.682853     -15.948264    
   6120000   0.99547177     0.00054247332 -14.715651     -15.984716    
   6130000   0.99645787    -0.0043139011  -14.757762     -15.994068    
   6140000   0.94641389     0.0057270911  -14.750066     -15.955677    
   6150000   0.96565453     0.0053590637  -14.795415     -16.011895    
   6160000   0.91182839    -0.0094057144  -14.825217     -15.987699    
   6170000   0.95210709    -0.0019390161  -14.812877     -16.023713    
   6180000   1.01349        0.0018555788  -14.716662     -16.006931    
   6190000   0.96822835     0.001017135   -14.807125     -16.013269    
   6200000   1.0080081     -0.0011915108  -14.741818     -15.999428    
   6210000   0.95730113    -0.0053696042  -14.773511     -15.993423    
   6220000   1.0508215     -0.0073876036  -14.712286     -16.021842    
   6230000   1.0496234     -0.0042706373  -14.68912      -15.987595    
   6240000   1.0171319     -0.0002925428  -14.743498     -16.028189    
   6250000   1.0051268      0.0022534976  -14.713579     -15.979114    
   6260000   1.0306842     -0.0083225824  -14.74145      -16.004215    
   6270000   1.0106533      0.0045354315  -14.750991     -16.036791    
   6280000   0.98597895    -0.0018584486  -14.774079     -16.00962     
   6290000   1.0016656     -0.014089386   -14.790952     -16.033029    
   6300000   1.0217919     -0.003939477   -14.721372     -16.007664    
   6310000   0.99473824     0.017356463   -14.736981     -15.99546     
   6320000   0.98392969    -0.0037704235  -14.806372     -16.030075    
   6330000   0.98499513     0.0012215838  -14.761814     -16.006984    
   6340000   1.0184926     -0.0068163914  -14.740521     -16.013916    
   6350000   1.006772       0.0028395012  -14.751045     -15.995795    
   6360000   1.0219265      0.0036663832  -14.703345     -15.990252    
   6370000   1.0268114     -0.0043772201  -14.789265     -16.047422    
   6380000   0.99503077    -0.001315035   -14.764276     -16.009029    
   6390000   0.9742123      0.001928371   -14.759547     -15.990801    
   6400000   0.98697812    -0.0022268695  -14.779606     -16.003296    
   6410000   0.99927435     0.0073477707  -14.708022     -15.982065    
   6420000   1.0252116      0.0014912601  -14.745665     -16.00234     
   6430000   1.0138165      0.0054366695  -14.729699     -16.001331    
   6440000   0.95274555     0.0030898988  -14.786095     -16.001751    
   6450000   1.0193093     -0.011839087   -14.787571     -16.04094     
   6460000   1.0197115     -0.0090641706  -14.75834      -16.012782    
   6470000   1.0003796      0.0018467309  -14.736855     -15.988       
   6480000   0.9821576      0.00061132138 -14.790675     -16.018969    
   6490000   0.97565964    -0.016988009   -14.767468     -16.004951    
   6500000   1.0471097      0.019873639   -14.733566     -16.041952    
   6510000   0.99733808     0.0090000627  -14.791478     -16.024528    
   6520000   1.0110519     -0.0059085913  -14.72         -16.014606    
   6530000   0.96666047    -0.0036692413  -14.820851     -16.021375    
   6540000   1.0098968      0.011008124   -14.771735     -16.0223      
   6550000   1.0004863     -0.0027693678  -14.75077      -15.967062    
   6560000   1.0155218     -0.00048763244 -14.693312     -15.966077    
   6570000   1.0901519      0.0068790165  -14.673398     -15.996518    
   6580000   1.0005294     -0.01371167    -14.742112     -15.997493    
   6590000   0.98412013     0.0046181348  -14.808101     -16.031066    
   6600000   1.0140728      0.00036422724 -14.758332     -16.017559    
   6610000   0.97690892     0.0069608994  -14.782341     -15.995706    
   6620000   0.99670024    -0.00015509598 -14.745485     -15.983784    
   6630000   0.9978747      0.013618154   -14.720685     -15.981774    
   6640000   1.0241098     -0.0036291609  -14.738898     -16.032612    
   6650000   0.97746314    -0.0024951682  -14.785441     -16.003833    
   6660000   0.95901832    -0.015900408   -14.770935     -15.985339    
   6670000   1.0052248      0.0013356197  -14.754981     -16.002217    
   6680000   0.96550469     0.0022274588  -14.815549     -16.013786    
   6690000   0.98232101     0.0043824491  -14.793418     -16.01177     
   6700000   1.0705405      0.0031883687  -14.708617     -16.014234    
   6710000   0.95599312    -0.0072026531  -14.796759     -15.99817     
   6720000   1.052686      -0.00017573051 -14.65965      -15.985699    
   6730000   0.99669054     0.0070680593  -14.762695     -16.003987    
   6740000   0.9941589     -0.0013705184  -14.777792     -16.027701    
   6750000   0.97706652     0.0097997338  -14.824522     -16.033974    
   6760000   1.010955      -0.0096204419  -14.727857     -15.98965     
   6770000   1.0619285      0.0010400667  -14.720542     -16.016881    
   6780000   0.96692756     0.0022082525  -14.801312     -16.011732    
   6790000   0.99885273     0.0058674898  -14.693371     -15.973108    
   6800000   1.0172672     -0.0052884587  -14.694781     -15.986675    
   6810000   0.97946209    -0.0098784376  -14.751497     -16.014929    
   6820000   1.0223166     -0.0025343461  -14.778962     -16.039934    
   6830000   1.0149768     -0.0030582296  -14.73345      -16.000973    
   6840000   1.0658644      0.010509184   -14.654289     -15.987569    
   6850000   1.0418576      0.0047961232  -14.69045      -15.992523    
   6860000   1.0043743      0.011410767   -14.723905     -15.995858    
   6870000   0.99114667     0.0058885467  -14.728082     -15.960147    
   6880000   0.99536851     0.0055578952  -14.803933     -16.024541    
   6890000   1.0151663     -0.0019505828  -14.751176     -16.00964     
   6900000   1.0220771      0.0001681587  -14.704369     -15.982401    
   6910000   0.99894609    -0.0070306653  -14.776599     -16.003443    
   6920000   1.0006818      0.0026942688  -14.742665     -15.986361    
   6930000   1.0811483      0.0077599291  -14.62031      -15.964675    
   6940000   0.99427945     0.012764885   -14.795018     -16.029257    
   6950000   0.94749238     0.0096296009  -14.812566     -16.007943    
   6960000   1.0250644      0.0015869363  -14.740971     -16.00504     
   6970000   1.0129047      0.00075205508 -14.729786     -15.990581    
   6980000   0.95430677    -0.0042089276  -14.818084     -16.027615    
   6990000   1.0208764      0.0069187791  -14.701968     -15.986216    
   7000000   1.0220487     -0.011623115   -14.746551     -16.016412    
   7010000   0.99306832    -0.00092414998 -14.766308     -16.012575    
   7020000   1.0365301     -0.0027630844  -14.728772     -16.010041    
   7030000   0.97871062    -0.0036680889  -14.796566     -16.014699    
   7040000   1.0179376      0.0008871056  -14.734001     -15.999196    
   7050000   0.98166021    -0.012218656   -14.771985     -16.011995    
   7060000   0.98229185     0.010264134   -14.786538     -16.011506    
   7070000   0.9523714     -0.012150531   -14.792669     -15.999884    
   7080000   0.98625483    -0.0047163206  -14.797343     -16.025678    
   7090000   0.96275283    -0.0078628399  -14.771315     -15.995834    
   7100000   0.9871138     -0.0053800074  -14.756628     -16.00094     
   7110000   0.97384709     0.0071217054  -14.780515     -16.022712    
   7120000   0.96359643    -0.0016505105  -14.808085     -16.021723    
   7130000   0.99844664     0.00045544661 -14.749233     -16.008913    
   7140000   1.0362331      0.0029487753  -14.774321     -16.070642    
   7150000   0.96329317     0.0086535615  -14.873062     -16.097762    
   7160000   0.99587314    -0.0045453284  -14.948881     -16.181852    
   7170000   1.0036881     -0.00068138906 -14.917641     -16.18976     
   7180000   1.0088734      0.0012166446  -14.927985     -16.165303    
   7190000   0.98567882     0.0096748616  -15.001592     -16.219788    
   7200000   0.97281693    -0.001264796   -15.030161     -16.256794    
   7210000   1.0094324     -0.0051525548  -15.022829     -16.274429    
   7220000   0.99528935     0.0037963677  -15.117207     -16.327553    
   7230000   0.9745438     -0.018924846   -15.075596     -16.2945      
   7240000   1.0640122     -0.0089665787  -14.981361     -16.297924    
   7250000   1.0022237     -0.0072876645  -15.09404      -16.346228    
   7260000   1.0174903     -0.002244051   -15.066828     -16.33566     
   7270000   1.0157497     -0.0070583425  -15.06734      -16.332206    
   7280000   1.0070701      0.0068146516  -15.070336     -16.325131    
   7290000   0.99192261     0.010443026   -15.111128     -16.334249    
   7300000   0.98807442     0.013169854   -15.060739     -16.303346    
   7310000   0.97883911     0.0073806424  -15.09327      -16.346004    
   7320000   1.0352781      0.0033342181  -15.094142     -16.387133    
   7330000   0.98544202     0.00066229656 -15.210601     -16.421856    
   7340000   1.0355382      0.0054490074  -15.121581     -16.393756    
   7350000   1.0042746      0.011413204   -15.082455     -16.333498    
   7360000   0.9759309      0.0047600717  -15.143473     -16.357813    
   7370000   0.98838024     0.00045821402 -15.19331      -16.39103     
   7380000   0.97557964     0.0089021441  -15.164344     -16.370974    
   7390000   1.0041928      0.0016581433  -15.076473     -16.343812    
   7400000   1.0245887     -0.00046008958 -15.128575     -16.398004    
   7410000   0.93614331     0.0022989408  -15.245371     -16.407629    
   7420000   1.0554417      0.00058772414 -15.164827     -16.435897    
   7430000   1.0601098      0.0043868204  -15.078888     -16.370752    
   7440000   0.99986401     0.0069609695  -15.118769     -16.371043    
   7450000   0.96363722     0.0047311911  -15.139044     -16.35398     
   7460000   1.0378677      0.002459397   -15.148123     -16.414236    
   7470000   1.0457297      0.012271393   -15.093275     -16.399032    
   7480000   0.97176096     0.0019667784  -15.113779     -16.343609    
   7490000   0.99071781    -0.0035897566  -15.095037     -16.353377    
   7500000   0.98232925     0.0013432674  -15.160708     -16.406312    
   7510000   1.0020344     -0.010285575   -15.145817     -16.39875     
   7520000   0.94724334    -0.0060218419  -15.232281     -16.399594    
   7530000   1.002538      -0.0091066312  -15.158391     -16.395134    
   7540000   0.97166811     0.0015766325  -15.223218     -16.425403    
   7550000   1.0324787      0.0041709021  -15.098012     -16.375348    
   7560000   1.0110908      0.0035676105  -15.071797     -16.333166    
   7570000   0.96032725     0.001859157   -15.214196     -16.410129    
   7580000   0.97779447    -0.0044108435  -15.160224     -16.386521    
   7590000   0.99556542     0.0090786038  -15.116719     -16.374076    
   7600000   0.97518237     0.0032387329  -15.163447     -16.388783    
   7610000   1.0562786      0.0046037154  -15.098996     -16.384156    
   7620000   0.9743191      0.00055771394 -15.153237     -16.370966    
   7630000   1.0250445     -0.0051721762  -15.072501     -16.338202    
   7640000   1.0271828     -0.00047305505 -15.128772     -16.387816    
   7650000   1.0098269      0.00106893    -15.129905     -16.378643    
   7660000   1.040473      -0.015123273   -15.049614     -16.371348    
   7670000   0.962826       0.0014712236  -15.221465     -16.432027    
   7680000   0.98223373    -0.00092486408 -15.160901     -16.394054    
   7690000   0.96723885    -0.013681856   -15.124337     -16.344698    
   7700000   1.0409862      0.0073561765  -15.103608     -16.407361    
   7710000   0.95543682    -0.0024734177  -15.15452      -16.368209    
   7720000   0.9920264      0.0078735094  -15.175269     -16.407357    
   7730000   0.99557058    -0.0071541908  -15.130474     -16.373845    
   7740000   0.99854517     0.0067878938  -15.150531     -16.409097    
   7750000   0.98093148    -0.0014107417  -15.149136     -16.3876      
   7760000   0.99899818    -0.0072158749  -15.130818     -16.383157    
   7770000   1.0213363     -0.0004171581  -15.147843     -16.409093    
   7780000   1.0269845      0.0038358878  -15.099699     -16.375746    
   7790000   1.0088803     -0.0096468559  -15.111027     -16.380589    
   7800000   0.97413097    -0.012198538   -15.214832     -16.398651    
   7810000   1.0154216      0.00037143857 -15.139213     -16.388716    
   7820000   0.98467594     0.0022905815  -15.185773     -16.401054    
   7830000   1.0010256     -0.010430273   -15.090111     -16.328891    
   7840000   0.99463574    -0.0037797783  -15.129703     -16.382171    
   7850000   1.0077468     -0.013331896   -15.123481     -16.373365    
   7860000   1.0106992      0.0025678407  -15.150592     -16.388252    
   7870000   1.0002131      0.0034164893  -15.12696      -16.37834     
   7880000   0.99543365    -0.017227412   -15.165657     -16.413937    
   7890000   1.0113067      0.0089579125  -15.155718     -16.395123    
   7900000   1.0299269      0.0077518959  -15.143119     -16.417814    
   7910000   0.97283545     0.010658492   -15.113877     -16.341838    
   7920000   0.94269003    -0.0023549339  -15.227016     -16.40509     
   7930000   0.95134235     0.0047929011  -15.180803     -16.372073    
   7940000   0.99392384    -0.0038169734  -15.139757     -16.371899    
   7950000   0.95668905     0.013300845   -15.1691       -16.366517    
   7960000   0.96045791    -0.010829883   -15.163813     -16.380997    
   7970000   1.0034714     -0.0043148904  -15.145309     -16.395131    
   7980000   1.001618       0.0071732764  -15.139917     -16.391276    
   7990000   1.0121257     -0.0020577338  -15.146089     -16.406573    
   8000000   0.93192546     0.013292537   -15.214743     -16.405394    
   8010000   1.051457      -0.0042323023  -15.110445     -16.397732    
   8020000   1.0168077      0.0076020726  -15.169834     -16.420549    
   8030000   1.0291612      0.0019140016  -15.108873     -16.384277    
   8040000   0.96976871    -0.0039696823  -15.187602     -16.408036    
   8050000   1.0518162      0.0070685129  -15.064224     -16.365136    
   8060000   1.0131772     -0.0052581098  -15.136039     -16.391633    
   8070000   0.97297078     0.015849288   -15.153586     -16.3704      
   8080000   0.97610106     0.0067772208  -15.160357     -16.386152    
   8090000   1.0083756      0.01184225    -15.121074     -16.373029    
   8100000   0.9530977      0.023395967   -15.20339      -16.406619    
   8110000   1.0251364      0.0030734222  -15.13083      -16.376837    
   8120000   0.97754492     0.016220855   -15.170725     -16.40159     
   8130000   0.97030946     0.0083577416  -15.169215     -16.373162    
   8140000   0.94959549    -0.015091911   -15.163195     -16.363411    
   8150000   0.99192199     0.019790358   -15.157743     -16.40772     
   8160000   1.0486282     -0.00046651303 -15.101521     -16.38182     
   8170000   1.0147779     -0.0063460149  -15.147324     -16.391571    
   8180000   0.98892067     0.0072298548  -15.190167     -16.415026    
   8190000   0.96293813    -0.0026236063  -15.133852     -16.353122    
   8200000   0.98605637    -0.0026245094  -15.177709     -16.392541    
   8210000   1.0646354      0.011562371   -15.087612     -16.387925    
   8220000   1.0105618     -0.010138933   -15.078205     -16.35888     
   8230000   1.0180023      0.0089378101  -15.082288     -16.356091    
   8240000   1.0214823      0.0022976335  -15.110726     -16.390421    
   8250000   0.9915413     -0.0022703981  -15.160021     -16.389734    
   8260000   0.98497843    -0.003198824   -15.146797     -16.393839    
   8270000   0.91282273    -0.0038547682  -15.23311      -16.377535    
   8280000   1.0035009     -0.008301584   -15.109258     -16.358493    
   8290000   1.0043553      0.012777396   -15.177413     -16.424817    
   8300000   0.99100591     0.00058141072 -15.154523     -16.383032    
   8310000   1.0141553     -0.0062938755  -15.146717     -16.391208    
   8320000   0.95952744     0.0023916226  -15.180649     -16.388531    
   8330000   1.002772       0.0091404505  -15.137039     -16.382289    
   8340000   1.036429       0.00079705719 -15.135923     -16.41681     
   8350000   1.0547754     -0.0035787034  -15.088277     -16.413213    
   8360000   0.99027715     0.011545953   -15.166113     -16.387571    
   8370000   0.97001304    -0.00017616408 -15.169588     -16.386533    
   8380000   0.954851       0.0070791053  -15.180136     -16.384034    
   8390000   1.0048785     -0.0052127084  -15.102154     -16.362047    
   8400000   1.0105351      0.0061149319  -15.125699     -16.378747    
   8410000   0.9841872     -0.0098853584  -15.161609     -16.39031     
   8420000   1.0319912      4.4585683e-05 -15.102991     -16.388182    
   8430000   0.96429946     0.015919424   -15.165057     -16.366203    
   8440000   0.99589263     0.00096050788 -15.104245     -16.34402     
   8450000   0.97326869     0.0010305215  -15.144214     -16.365102    
   8460000   1.0096231     -0.010674105   -15.105604     -16.357846    
   8470000   0.99423553     0.0031103881  -15.11891      -16.359682    
   8480000   0.96064081     0.010742719   -15.163359     -16.367451    
   8490000   0.97789691     0.0076634139  -15.202059     -16.418085    
   8500000   0.97164234     0.0044792941  -15.133482     -16.367795    
   8510000   0.96448662    -0.00096558128 -15.176115     -16.390642    
   8520000   1.0135312     -0.0060725695  -15.140626     -16.409357    
   8530000   1.0206472     -0.0043039194  -15.084069     -16.367916    
   8540000   0.99988701    -0.0044739227  -15.130215     -16.380046    
   8550000   0.97574903     0.0077201045  -15.17367      -16.390654    
   8560000   1.0249303     -0.012306529   -15.115168     -16.397144    
   8570000   0.98357567    -0.0021659229  -15.112727     -16.355062    
   8580000   1.0237956      0.010386966   -15.110945     -16.375876    
   8590000   1.0052171     -0.0029283534  -15.133944     -16.397454    
   8600000   0.95055565    -0.010053361   -15.16024      -16.370436    
   8610000   0.98526963     0.010809343   -15.177812     -16.405452    
   8620000   1.0086404      0.010461454   -15.099237     -16.374799    
   8630000   1.0221178      0.0071702812  -15.139257     -16.426819    
   8640000   0.94368798    -0.0093750796  -15.208723     -16.397781    
   8650000   1.0141079     -0.00014304058 -15.144787     -16.403434    
   8660000   1.0100827      0.001918313   -15.148021     -16.413943    
   8670000   0.96045744    -0.014431207   -15.18833      -16.381968    
   8680000   1.0098613      0.0047139029  -15.171889     -16.425309    
   8690000   1.0067611     -0.002698524   -15.105212     -16.366497    
   8700000   1.0219555     -0.018420015   -15.188487     -16.440004    
   8710000   1.003612       0.0064050325  -15.153858     -16.413236    
   8720000   0.98305836     0.014381959   -15.196117     -16.433383    
   8730000   1.0107255     -0.0091673577  -15.195244     -16.434019    
   8740000   0.97103201    -0.0073822973  -15.17394      -16.398394    
   8750000   0.93732944    -0.0052564232  -15.21766      -16.391766    
   8760000   0.98889868    -0.0028005993  -15.171996     -16.423035    
   8770000   1.007028      -0.0023226924  -15.159758     -16.401062    
   8780000   0.98438887    -0.0013136053  -15.162987     -16.408525    
   8790000   1.0619616     -0.0055430865  -15.089164     -16.409709    
   8800000   1.002701       0.0026387013  -15.187484     -16.41942     
   8810000   1.0095615      0.0037495317  -15.195247     -16.461661    
   8820000   1.0438265      0.0052310818  -15.154729     -16.4533      
   8830000   1.0166328      0.0081482944  -15.14095      -16.412165    
   8840000   0.96060622     0.0060882512  -15.204714     -16.399222    
   8850000   1.0468989      0.01609876    -15.164634     -16.453956    
   8860000   1.0858451      0.0013919421  -15.122419     -16.428682    
   8870000   1.0240666      0.0023520668  -15.136662     -16.428192    
   8880000   0.98585306    -0.0082566798  -15.181328     -16.422513    
   8890000   1.0373922      0.0012043081  -15.135992     -16.418064    
   8900000   0.93983777     0.0036578109  -15.22423      -16.418249    
   8910000   0.97190686    -0.005293507   -15.189327     -16.413592    
   8920000   0.9202768      0.0063129411  -15.291081     -16.438615    
   8930000   0.99338959     0.0047214613  -15.167665     -16.409717    
   8940000   1.0038309      0.0031178505  -15.170843     -16.425244    
   8950000   0.94455722    -0.0059375513  -15.221151     -16.423787    
   8960000   1.0244235      0.014418738   -15.121975     -16.407853    
   8970000   0.96012565     0.015194165   -15.245637     -16.457117    
   8980000   1.0155087     -0.011466433   -15.188952     -16.465909    
   8990000   0.96789964     0.0054325522  -15.222762     -16.436502    
   9000000   0.99790185    -0.006244853   -15.230893     -16.480453    
   9010000   0.98042292     0.0078209168  -15.240959     -16.498893    
   9020000   1.0047635      0.0048699301  -15.254678     -16.503525    
   9030000   1.0073269      0.010636551   -15.288212     -16.535351    
   9040000   1.0118773     -0.0060124676  -15.355611     -16.5823      
   9050000   0.96775719    -0.0051124015  -15.318325     -16.534609    
   9060000   1.0447814      0.0030143093  -15.284469     -16.575252    
   9070000   0.99072291     0.002685857   -15.348546     -16.569285    
   9080000   0.98149734    -0.009825738   -15.390391     -16.617044    
   9090000   0.9961043      0.00080683698 -15.378119     -16.613296    
   9100000   0.96097861    -0.0073030677  -15.415904     -16.623158    
   9110000   0.95341925     0.0001244887  -15.478816     -16.680964    
   9120000   1.0039495     -0.00077761124 -15.429382     -16.684576    
   9130000   1.0022488      0.0027884969  -15.369663     -16.607716    
   9140000   1.032084       0.010839306   -15.37445      -16.644882    
   9150000   1.0234849      0.0067848033  -15.395146     -16.664891    
   9160000   1.0471861      0.01098748    -15.328442     -16.623749    
   9170000   0.99734654    -0.0094283457  -15.415875     -16.660072    
   9180000   1.0081127      0.0068217768  -15.389723     -16.64549     
   9190000   1.012594       0.0045534164  -15.419123     -16.674085    
   9200000   0.98358574     0.0062288809  -15.42295      -16.662511    
   9210000   0.99965099    -0.0078614679  -15.459986     -16.695517    
   9220000   1.0423349      0.0033516514  -15.409682     -16.681319    
   9230000   0.96654        0.011934599   -15.40906      -16.627516    
   9240000   0.9708058      0.00013970796 -15.457746     -16.66105     
   9250000   0.98568978     0.010211135   -15.420052     -16.638649    
   9260000   1.0103079      0.00028070034 -15.404136     -16.658941    
   9270000   1.0432166     -0.014410052   -15.330222     -16.631396    
   9280000   0.99793873    -0.0015638746  -15.448401     -16.688868    
   9290000   1.0179228     -0.00084275176 -15.388211     -16.662474    
   9300000   1.0858555      0.0098075581  -15.337941     -16.659528    
   9310000   1.0228294     -0.00055665908 -15.397708     -16.657727    
   9320000   0.98252696     0.00048496324 -15.421182     -16.637939    
   9330000   0.98776       -0.0081756253  -15.442859     -16.683938    
   9340000   1.0264084      0.00051321256 -15.407442     -16.680888    
   9350000   0.95251201     0.012464465   -15.43936      -16.64017     
   9360000   1.026377       0.0047533422  -15.380654     -16.64039     
   9370000   1.0018442      0.0091284547  -15.404362     -16.648471    
   9380000   1.0035821      0.0080834212  -15.4278       -16.663326    
   9390000   1.0054326      0.0048449063  -15.369476     -16.62442     
   9400000   1.0296872      0.014371995   -15.364906     -16.628581    
   9410000   1.0152008     -0.010671102   -15.398852     -16.666257    
   9420000   0.98431215    -0.0011730839  -15.444023     -16.649316    
   9430000   1.0010126     -0.0047459687  -15.413187     -16.677581    
   9440000   1.0167213      0.0082163253  -15.350013     -16.64205     
   9450000   1.0043048     -0.0084599156  -15.39301      -16.641917    
   9460000   0.99091669     0.0016360121  -15.435565     -16.681575    
   9470000   1.0114748      0.0017409097  -15.417676     -16.67052     
   9480000   1.0119941     -0.0057130245  -15.435125     -16.675054    
   9490000   0.96559873    -0.0030348703  -15.436093     -16.660738    
   9500000   0.99702009     0.0054610032  -15.444476     -16.671755    
   9510000   1.0510093      0.02066483    -15.347186     -16.651045    
   9520000   0.94575667    -0.0013401158  -15.47992      -16.668478    
   9530000   1.0279212      0.0018811864  -15.370326     -16.645432    
   9540000   1.0130455      0.002864669   -15.417679     -16.687422    
   9550000   0.99322459    -0.0078846849  -15.428578     -16.658684    
   9560000   1.0490574      0.0010583664  -15.371897     -16.654343    
   9570000   1.0122136      0.001527015   -15.407064     -16.640635    
   9580000   1.0255397     -0.0056194208  -15.37035      -16.647372    
   9590000   0.99677428     0.0031035619  -15.437301     -16.679321    
   9600000   0.95465202    -0.0098019901  -15.453431     -16.652675    
   9610000   1.0132314     -0.011174698   -15.432617     -16.66583     
   9620000   0.9818923     -0.0047625803  -15.456464     -16.658112    
   9630000   1.0216608     -0.0076626744  -15.398791     -16.682532    
   9640000   0.99168232    -0.0093673481  -15.434175     -16.666167    
   9650000   0.98872651    -0.0097576895  -15.462369     -16.694498    
   9660000   0.99966378    -0.0073372595  -15.435541     -16.667484    
   9670000   1.0122035     -0.0047882106  -15.37844      -16.642222    
   9680000   0.9847061      0.003832441   -15.43536      -16.65958     
   9690000   0.98380538     0.0041269353  -15.486361     -16.702152    
   9700000   0.9908169     -0.012007245   -15.426997     -16.653068    
   9710000   0.99578089     0.0046854823  -15.38434      -16.633837    
   9720000   0.99466275    -0.0068123402  -15.437405     -16.671602    
   9730000   1.0240759      0.012116555   -15.423559     -16.690303    
   9740000   1.0323781      0.010798897   -15.375558     -16.645262    
   9750000   0.99729744     0.0059473164  -15.431319     -16.666599    
   9760000   0.98557274     0.00016907159 -15.420871     -16.654137    
   9770000   1.0393977      0.0020789056  -15.364003     -16.655799    
   9780000   1.0319533      0.012468576   -15.420255     -16.690128    
   9790000   0.99372204     0.010449577   -15.484115     -16.702181    
   9800000   1.0213573      0.0057178958  -15.395322     -16.651951    
   9810000   0.94628034    -0.0083313848  -15.437905     -16.647995    
   9820000   0.93957158     0.0021911928  -15.465419     -16.649159    
   9830000   0.9885101      0.002038823   -15.439818     -16.676041    
   9840000   1.0117182      0.0021751712  -15.395446     -16.660291    
   9850000   0.95147622    -0.0022625378  -15.488081     -16.700765    
   9860000   1.0029174     -0.0025894772  -15.380536     -16.656258    
   9870000   0.99954382     0.0032944806  -15.396007     -16.642593    
   9880000   0.9962845      0.0042297045  -15.434672     -16.66131     
   9890000   1.0047509     -0.0031518916  -15.459436     -16.687071    
   9900000   0.9704        -0.01227963    -15.463705     -16.676308    
   9910000   0.97010399     0.0077207778  -15.38921      -16.618858    
   9920000   1.033882       0.0013811048  -15.324643     -16.631165    
   9930000   1.0498876      0.0072507562  -15.35873      -16.647838    
   9940000   0.99785891    -0.013594689   -15.414992     -16.654633    
   9950000   0.97706032     0.0011410568  -15.40232      -16.649038    
   9960000   0.98082681     0.0068483454  -15.406404     -16.641088    
   9970000   1.0204503      0.0019927695  -15.436508     -16.699563    
   9980000   1.0221479      0.008018036   -15.338668     -16.627534    
   9990000   1.0564675      0.0089357601  -15.370804     -16.672128    
  10000000   0.99993544    -0.0091561725  -15.396578     -16.644717    
Loop time of 1268.81 on 1 procs for 10000000 steps with 1121 atoms

Performance: 3404765.706 tau/day, 7881.402 timesteps/s
99.1% CPU use with 1 MPI tasks x no OpenMP threads

MPI task timing breakdown:
Section |  min time  |  avg time  |  max time  |%varavg| %total
---------------------------------------------------------------
Pair    | 673.51     | 673.51     | 673.51     |   0.0 | 53.08
Bond    | 66.758     | 66.758     | 66.758     |   0.0 |  5.26
Neigh   | 168.17     | 168.17     | 168.17     |   0.0 | 13.25
Comm    | 18.084     | 18.084     | 18.084     |   0.0 |  1.43
Output  | 1.3047     | 1.3047     | 1.3047     |   0.0 |  0.10
Modify  | 302.37     | 302.37     | 302.37     |   0.0 | 23.83
Other   |            | 38.62      |            |       |  3.04

Nlocal:           1121 ave        1121 max        1121 min
Histogram: 1 0 0 0 0 0 0 0 0 0
Nghost:            132 ave         132 max         132 min
Histogram: 1 0 0 0 0 0 0 0 0 0
Neighs:           3336 ave        3336 max        3336 min
Histogram: 1 0 0 0 0 0 0 0 0 0

Total # of neighbors = 3336
Ave neighs/atom = 2.9759144
Ave special neighs/atom = 4.9330955
Neighbor list builds = 1177504
Dangerous builds = 0
Total wall time: 0:21:09
