ITEM: TIMESTEP
0
ITEM: NUMBER OF ATOMS
2092
ITEM: BOX BOUNDS pp pp pp
-2.0000000000000000e+02 2.0000000000000000e+02
-2.0000000000000000e+02 2.0000000000000000e+02
-5.0000000000000003e-02 5.0000000000000003e-02
ITEM: ATOMS id type mol x y z q
1901 383 182 -173.237 -199.796 0 0.5
185 218 17 -38.4971 -199.613 0 0.5
1762 201 169 -119.061 -175.298 0 0.5
1765 370 169 -119.927 -175.798 0 0.5
1761 201 169 -111.922 -175.298 0 0.5
1764 370 169 -111.056 -175.798 0 0.5
1655 201 159 -80.1544 -177.587 0 0.5
1660 360 159 -80.7422 -178.396 0 0.5
1654 201 159 -73.8341 -177.587 0 0.5
1659 360 159 -73.2463 -178.396 0 0.5
272 201 25 -57.7457 -177.454 0 0.5
276 226 25 -57.7457 -178.454 0 0.5
843 201 80 13.9829 -176.277 0 0.5
849 281 80 13.1168 -176.777 0 0.5
841 201 80 24.5143 -176.277 0 0.5
842 201 80 19.2486 -179.317 0 0.5
848 281 80 19.2486 -180.317 0 0.5
847 281 80 25.3803 -176.777 0 0.5
1806 201 173 33.2385 -176.273 0 0.5
1812 374 173 32.3725 -176.773 0 0.5
1805 201 173 38.4971 -179.309 0 0.5
1811 374 173 38.4971 -180.309 0 0.5
1804 201 173 43.7557 -176.273 0 0.5
1810 374 173 44.6218 -176.773 0 0.5
1040 201 99 54.2423 -175.26 0 0.5
1043 300 99 53.3763 -175.76 0 0.5
1039 201 99 61.249 -175.26 0 0.5
1042 300 99 62.1151 -175.76 0 0.5
1567 201 151 73.7625 -177.685 0 0.5
1572 352 151 73.1747 -178.494 0 0.5
1566 201 151 80.226 -177.685 0 0.5
1571 352 151 80.8138 -178.494 0 0.5
1301 201 126 99.4474 -177.648 0 0.5
1302 201 126 93.0382 -177.648 0 0.5
1307 327 126 92.4504 -178.457 0 0.5
1306 327 126 100.035 -178.457 0 0.5
1052 201 101 134.74 -177.891 0 0.5
1056 302 101 134.74 -178.891 0 0.5
1759 169 169 -115.491 -173.237 0 3.17186
1760 201 169 -115.491 -169.116 0 0.5
1763 370 169 -115.491 -168.116 0 0.5
1651 159 159 -76.9942 -173.237 0 4.28981
1652 201 159 -76.9942 -167.861 0 0.5
1656 201 159 -82.1075 -171.576 0 0.5
1657 360 159 -76.9942 -166.861 0 0.5
1661 360 159 -83.0585 -171.267 0 0.5
1653 201 159 -71.881 -171.576 0 0.5
1658 360 159 -70.9299 -171.267 0 0.5
273 201 25 -61.963 -173.237 0 0.5
277 226 25 -62.963 -173.237 0 0.5
269 25 25 -57.7457 -173.237 0 3.25722
270 201 25 -57.7457 -169.02 0 0.5
271 201 25 -53.5284 -173.237 0 0.5
274 226 25 -57.7457 -168.02 0 0.5
275 226 25 -52.5284 -173.237 0 0.5
844 201 80 13.9829 -170.197 0 0.5
850 281 80 13.1168 -169.697 0 0.5
838 80 80 19.2486 -173.237 0 4.91695
839 201 80 19.2486 -167.157 0 0.5
840 201 80 24.5143 -170.197 0 0.5
846 281 80 25.3803 -169.697 0 0.5
1807 201 173 33.2385 -170.201 0 0.5
1813 374 173 32.3725 -169.701 0 0.5
1801 173 173 38.4971 -173.237 0 4.90966
1802 201 173 38.4971 -167.165 0 0.5
1803 201 173 43.7557 -170.201 0 0.5
1809 374 173 44.6218 -169.701 0 0.5
1037 99 99 57.7457 -173.237 0 3.10397
1038 201 99 57.7457 -169.192 0 0.5
1041 300 99 57.7457 -168.192 0 0.5
1568 201 151 71.7651 -171.538 0 0.5
1573 352 151 70.8141 -171.229 0 0.5
1563 151 151 76.9942 -173.237 0 4.39836
1564 201 151 76.9942 -167.739 0 0.5
1565 201 151 82.2234 -171.538 0 0.5
1569 352 151 76.9942 -166.739 0 0.5
1570 352 151 83.1744 -171.229 0 0.5
1303 201 126 91.0576 -171.552 0 0.5
1308 327 126 90.1066 -171.243 0 0.5
1298 126 126 96.2428 -173.237 0 4.35717
1299 201 126 96.2428 -167.785 0 0.5
1304 327 126 96.2428 -166.785 0 0.5
1300 201 126 101.428 -171.552 0 0.5
1305 327 126 102.379 -171.243 0 0.5
1053 201 101 130.086 -173.237 0 0.5
1057 302 101 129.086 -173.237 0 0.5
1049 101 101 134.74 -173.237 0 3.64643
1050 201 101 134.74 -168.583 0 0.5
1051 201 101 139.394 -173.237 0 0.5
1054 302 101 134.74 -167.583 0 0.5
1055 302 101 140.394 -173.237 0 0.5
137 201 13 -173.237 -160.706 0 0.5
143 214 13 -173.237 -161.706 0 0.5
1122 308 107 -100.206 -159.443 0 0.5
1116 201 107 -92.8678 -158.634 0 0.5
1117 201 107 -99.6178 -158.634 0 0.5
1121 308 107 -92.28 -159.443 0 0.5
660 201 64 -61.1169 -158.629 0 0.5
665 265 64 -61.7046 -159.438 0 0.5
659 201 64 -54.3745 -158.629 0 0.5
664 265 64 -53.7867 -159.438 0 0.5
38 201 4 -19.2486 -159.91 0 0.5
44 205 4 -19.2486 -160.91 0 0.5
1912 201 183 16.1865 -160.347 0 0.5
1919 384 183 15.7526 -161.248 0 0.5
845 281 80 19.2486 -166.157 0 0.5
1911 201 183 22.3106 -160.347 0 0.5
1918 384 183 22.7445 -161.248 0 0.5
1808 374 173 38.4971 -166.165 0 0.5
1247 321 120 76.9942 -159.25 0 0.5
1234 201 119 96.2428 -158.733 0 0.5
1238 320 119 96.2428 -159.733 0 0.5
1158 201 112 112.257 -158.441 0 0.5
1163 313 112 111.669 -159.25 0 0.5
1157 201 112 118.726 -158.441 0 0.5
1162 313 112 119.314 -159.25 0 0.5
312 201 29 157.226 -158.445 0 0.5
313 201 29 150.751 -158.445 0 0.5
317 230 29 157.814 -159.254 0 0.5
318 230 29 150.163 -159.254 0 0.5
1394 201 135 173.237 -158.968 0 0.5
1398 336 135 173.237 -159.968 0 0.5
138 201 13 -179.055 -157.347 0 0.5
139 201 13 -179.055 -150.63 0 0.5
144 214 13 -179.921 -157.847 0 0.5
145 214 13 -179.921 -150.13 0 0.5
133 13 13 -173.237 -153.988 0 5.48486
135 201 13 -167.419 -150.63 0 0.5
136 201 13 -167.419 -157.347 0 0.5
141 214 13 -166.553 -150.13 0 0.5
142 214 13 -166.553 -157.847 0 0.5
1118 201 107 -101.704 -152.214 0 0.5
1123 308 107 -102.655 -151.905 0 0.5
1113 107 107 -96.2428 -153.988 0 4.61543
1115 201 107 -90.782 -152.214 0 0.5
1120 308 107 -89.8309 -151.905 0 0.5
661 201 64 -63.2003 -152.216 0 0.5
666 265 64 -64.1514 -151.907 0 0.5
656 64 64 -57.7457 -153.988 0 4.60964
658 201 64 -52.291 -152.216 0 0.5
663 265 64 -51.34 -151.907 0 0.5
45 205 4 -25.2432 -157.449 0 0.5
46 205 4 -25.2432 -150.528 0 0.5
34 4 4 -19.2486 -153.988 0 4.77586
39 201 4 -24.3771 -156.949 0 0.5
40 201 4 -24.3771 -151.028 0 0.5
36 201 4 -14.12 -151.028 0 0.5
37 201 4 -14.12 -156.949 0 0.5
42 205 4 -13.254 -150.528 0 0.5
43 205 4 -13.254 -157.449 0 0.5
1913 201 183 12.3681 -155.559 0 0.5
1920 384 183 11.3932 -155.781 0 0.5
1907 183 183 19.2486 -153.988 0 5.7874
1910 201 183 26.129 -155.559 0 0.5
1917 384 183 27.1039 -155.781 0 0.5
1244 201 120 72.7328 -153.988 0 0.5
1248 321 120 71.7328 -153.988 0 0.5
1240 120 120 76.9942 -153.988 0 3.29655
1242 201 120 81.2557 -153.988 0 0.5
1243 201 120 76.9942 -158.25 0 0.5
1246 321 120 82.2557 -153.988 0 0.5
1235 201 119 91.4983 -153.988 0 0.5
1239 320 119 90.4983 -153.988 0 0.5
1231 119 119 96.2428 -153.988 0 3.72683
1233 201 119 100.987 -153.988 0 0.5
1237 320 119 101.987 -153.988 0 0.5
1154 112 112 115.491 -153.988 0 4.40285
1159 201 112 110.257 -152.288 0 0.5
1164 313 112 109.306 -151.979 0 0.5
1156 201 112 120.725 -152.288 0 0.5
1161 313 112 121.676 -151.979 0 0.5
314 201 29 148.75 -152.286 0 0.5
319 230 29 147.799 -151.977 0 0.5
309 29 29 153.988 -153.988 0 4.4073
311 201 29 159.227 -152.286 0 0.5
316 230 29 160.178 -151.977 0 0.5
1391 135 135 173.237 -153.988 0 3.9364
1395 201 135 168.257 -153.988 0 0.5
1399 336 135 167.257 -153.988 0 0.5
1393 201 135 178.217 -153.988 0 0.5
1397 336 135 179.217 -153.988 0 0.5
134 201 13 -173.237 -147.271 0 0.5
140 214 13 -173.237 -146.271 0 0.5
1114 201 107 -96.2428 -148.247 0 0.5
1119 308 107 -96.2428 -147.247 0 0.5
657 201 64 -57.7457 -148.253 0 0.5
662 265 64 -57.7457 -147.253 0 0.5
35 201 4 -19.2486 -148.067 0 0.5
41 205 4 -19.2486 -147.067 0 0.5
1914 201 183 13.7309 -149.588 0 0.5
1921 384 183 12.9491 -148.965 0 0.5
1908 201 183 19.2486 -146.931 0 0.5
1909 201 183 24.7662 -149.588 0 0.5
1915 384 183 19.2486 -145.931 0 0.5
1916 384 183 25.5481 -148.965 0 0.5
1241 201 120 76.9942 -149.727 0 0.5
1245 321 120 76.9942 -148.727 0 0.5
1232 201 119 96.2428 -149.244 0 0.5
1236 320 119 96.2428 -148.244 0 0.5
1155 201 112 115.491 -148.485 0 0.5
1160 313 112 115.491 -147.485 0 0.5
310 201 29 153.988 -148.48 0 0.5
315 230 29 153.988 -147.48 0 0.5
950 291 90 173.237 -141.745 0 0.5
1392 201 135 173.237 -149.009 0 0.5
1396 336 135 173.237 -148.009 0 0.5
1287 125 125 -153.988 -134.74 0 3.99352
1290 201 125 -151.024 -138.82 0 0.5
1291 201 125 -156.953 -138.82 0 0.5
1295 326 125 -150.436 -139.629 0 0.5
1296 326 125 -157.541 -139.629 0 0.5
900 86 86 -134.74 -134.74 0 3.57773
903 201 86 -134.74 -139.317 0 0.5
904 201 86 -139.317 -134.74 0 0.5
907 287 86 -134.74 -140.317 0 0.5
908 287 86 -140.317 -134.74 0 0.5
902 201 86 -130.163 -134.74 0 0.5
906 287 86 -129.163 -134.74 0 0.5
636 201 62 -60.8795 -139.053 0 0.5
641 263 62 -61.4672 -139.862 0 0.5
632 62 62 -57.7457 -134.74 0 4.24982
635 201 62 -54.6119 -139.053 0 0.5
640 263 62 -54.0241 -139.862 0 0.5
803 77 77 -19.2486 -134.74 0 4.34962
807 201 77 -22.4482 -139.144 0 0.5
812 278 77 -23.036 -139.953 0 0.5
806 201 77 -16.0489 -139.144 0 0.5
811 278 77 -15.4612 -139.953 0 0.5
1477 201 143 16.1842 -138.958 0 0.5
1482 344 143 15.5964 -139.767 0 0.5
1473 143 143 19.2486 -134.74 0 4.14459
1476 201 143 22.3129 -138.958 0 0.5
1481 344 143 22.9007 -139.767 0 0.5
594 201 58 149.82 -134.74 0 0.5
598 259 58 148.82 -134.74 0 0.5
590 58 58 153.988 -134.74 0 3.21402
592 201 58 158.157 -134.74 0 0.5
593 201 58 153.988 -138.909 0 0.5
597 259 58 153.988 -139.909 0 0.5
596 259 58 159.157 -134.74 0 0.5
940 90 90 173.237 -134.74 0 4.84986
944 201 90 173.237 -140.745 0 0.5
945 201 90 168.037 -137.742 0 0.5
951 291 90 167.171 -138.242 0 0.5
943 201 90 178.438 -137.742 0 0.5
949 291 90 179.304 -138.242 0 0.5
1926 201 184 188.135 -134.74 0 0.5
1930 385 184 187.135 -134.74 0 0.5
1922 184 184 192.486 -134.74 0 3.37555
1924 201 184 196.836 -134.74 0 0.5
1925 201 184 192.486 -139.09 0 0.5
1928 385 184 197.836 -134.74 0 0.5
1929 385 184 192.486 -140.09 0 0.5
1292 201 125 -158.785 -133.181 0 0.5
1297 326 125 -159.736 -132.872 0 0.5
1288 201 125 -153.988 -129.696 0 0.5
1293 326 125 -153.988 -128.696 0 0.5
1289 201 125 -149.192 -133.181 0 0.5
1294 326 125 -148.24 -132.872 0 0.5
901 201 86 -134.74 -130.163 0 0.5
905 287 86 -134.74 -129.163 0 0.5
637 201 62 -62.8162 -133.092 0 0.5
642 263 62 -63.7673 -132.783 0 0.5
633 201 62 -57.7457 -129.408 0 0.5
634 201 62 -52.6751 -133.092 0 0.5
638 263 62 -57.7457 -128.408 0 0.5
639 263 62 -51.7241 -132.783 0 0.5
813 278 77 -25.3767 -132.749 0 0.5
804 201 77 -19.2486 -129.296 0 0.5
808 201 77 -24.4257 -133.058 0 0.5
809 278 77 -19.2486 -128.296 0 0.5
805 201 77 -14.0715 -133.058 0 0.5
810 278 77 -13.1204 -132.749 0 0.5
1478 201 143 14.2903 -133.129 0 0.5
1483 344 143 13.3393 -132.82 0 0.5
1474 201 143 19.2486 -129.527 0 0.5
1475 201 143 24.2068 -133.129 0 0.5
1479 344 143 19.2486 -128.527 0 0.5
1480 344 143 25.1578 -132.82 0 0.5
591 201 58 153.988 -130.571 0 0.5
595 259 58 153.988 -129.571 0 0.5
941 201 90 173.237 -128.735 0 0.5
946 201 90 168.037 -131.737 0 0.5
947 291 90 173.237 -127.735 0 0.5
952 291 90 167.171 -131.237 0 0.5
942 201 90 178.438 -131.737 0 0.5
948 291 90 179.304 -131.237 0 0.5
1923 201 184 192.486 -130.39 0 0.5
1927 385 184 192.486 -129.39 0 0.5
1000 201 95 -173.237 -119.753 0 0.5
1004 296 95 -173.237 -120.753 0 0.5
911 201 87 -151.077 -117.172 0 0.5
912 201 87 -156.9 -117.172 0 0.5
914 288 87 -150.211 -117.672 0 0.5
915 288 87 -157.766 -117.672 0 0.5
1270 201 123 -134.74 -119.869 0 0.5
1274 324 123 -134.74 -120.869 0 0.5
583 201 57 -118.488 -119.615 0 0.5
588 258 57 -119.075 -120.424 0 0.5
582 201 57 -112.495 -119.615 0 0.5
587 258 57 -111.907 -120.424 0 0.5
1586 201 153 -96.2428 -119.91 0 0.5
1590 354 153 -96.2428 -120.91 0 0.5
603 201 59 -80.4379 -120.231 0 0.5
608 260 59 -81.0257 -121.04 0 0.5
602 201 59 -73.5505 -120.231 0 0.5
607 260 59 -72.9628 -121.04 0 0.5
463 201 46 -41.8831 -117.446 0 0.5
466 247 46 -42.7491 -117.946 0 0.5
462 201 46 -35.1112 -117.446 0 0.5
465 247 46 -34.2451 -117.946 0 0.5
1433 201 139 -22.4189 -119.855 0 0.5
1438 340 139 -23.0067 -120.664 0 0.5
1432 201 139 -16.0782 -119.855 0 0.5
1437 340 139 -15.4904 -120.664 0 0.5
535 201 53 16.2375 -119.636 0 0.5
540 254 53 15.6497 -120.445 0 0.5
534 201 53 22.2597 -119.636 0 0.5
539 254 53 22.8474 -120.445 0 0.5
2011 201 192 32.8408 -118.757 0 0.5
2017 393 192 31.9748 -119.257 0 0.5
2010 201 192 38.4971 -122.023 0 0.5
2016 393 192 38.4971 -123.023 0 0.5
1537 349 148 49.9902 -117.262 0 0.5
2009 201 192 44.1534 -118.757 0 0.5
2015 393 192 45.0195 -119.257 0 0.5
1529 201 148 54.7281 -121.758 0 0.5
1530 201 148 50.9651 -117.039 0 0.5
1536 349 148 54.2942 -122.659 0 0.5
1527 201 148 64.5262 -117.039 0 0.5
1528 201 148 60.7633 -121.758 0 0.5
1534 349 148 65.5012 -117.262 0 0.5
1535 349 148 61.1972 -122.659 0 0.5
259 201 24 74.0129 -121.682 0 0.5
260 201 24 70.2953 -117.02 0 0.5
266 225 24 73.579 -122.583 0 0.5
267 225 24 69.3203 -117.243 0 0.5
258 201 24 79.9756 -121.682 0 0.5
265 225 24 80.4095 -122.583 0 0.5
257 201 24 83.6932 -117.02 0 0.5
264 225 24 84.6682 -117.243 0 0.5
648 201 63 129.332 -118.614 0 0.5
654 264 63 128.466 -119.114 0 0.5
646 201 63 140.148 -118.614 0 0.5
647 201 63 134.74 -121.736 0 0.5
652 264 63 141.014 -119.114 0 0.5
653 264 63 134.74 -122.736 0 0.5
1694 201 163 153.988 -119.947 0 0.5
1698 364 163 153.988 -120.947 0 0.5
1046 201 100 173.237 -118.506 0 0.5
1048 301 100 173.237 -119.506 0 0.5
1001 201 95 -177.499 -115.491 0 0.5
1005 296 95 -178.499 -115.491 0 0.5
997 95 95 -173.237 -115.491 0 3.29686
998 201 95 -173.237 -111.23 0 0.5
999 201 95 -168.975 -115.491 0 0.5
1002 296 95 -173.237 -110.23 0 0.5
1003 296 95 -167.975 -115.491 0 0.5
909 87 87 -153.988 -115.491 0 2.49529
910 201 87 -153.988 -112.129 0 0.5
913 288 87 -153.988 -111.129 0 0.5
1267 123 123 -134.74 -115.491 0 3.40036
1268 201 123 -134.74 -111.113 0 0.5
1271 201 123 -139.118 -115.491 0 0.5
1272 324 123 -134.74 -110.113 0 0.5
1275 324 123 -140.118 -115.491 0 0.5
1269 201 123 -130.362 -115.491 0 0.5
1273 324 123 -129.362 -115.491 0 0.5
584 201 57 -120.339 -113.916 0 0.5
589 258 57 -121.29 -113.607 0 0.5
579 57 57 -115.491 -115.491 0 4.04125
580 201 57 -115.491 -110.394 0 0.5
581 201 57 -110.643 -113.916 0 0.5
585 258 57 -115.491 -109.394 0 0.5
586 258 57 -109.692 -113.607 0 0.5
1587 201 153 -100.661 -115.491 0 0.5
1591 354 153 -101.661 -115.491 0 0.5
1583 153 153 -96.2428 -115.491 0 3.4362
1584 201 153 -96.2428 -111.073 0 0.5
1585 201 153 -91.8246 -115.491 0 0.5
1588 354 153 -96.2428 -110.073 0 0.5
609 260 59 -83.5173 -113.372 0 0.5
1589 354 153 -90.8246 -115.491 0 0.5
599 59 59 -76.9942 -115.491 0 4.71957
600 201 59 -76.9942 -109.633 0 0.5
604 201 59 -82.5663 -113.681 0 0.5
605 260 59 -76.9942 -108.633 0 0.5
601 201 59 -71.4222 -113.681 0 0.5
606 260 59 -70.4712 -113.372 0 0.5
460 46 46 -38.4971 -115.491 0 2.9832
461 201 46 -38.4971 -111.582 0 0.5
464 247 46 -38.4971 -110.582 0 0.5
1439 340 139 -25.3294 -113.516 0 0.5
1429 139 139 -19.2486 -115.491 0 4.30527
1430 201 139 -19.2486 -110.098 0 0.5
1434 201 139 -24.3783 -113.825 0 0.5
1435 340 139 -19.2486 -109.098 0 0.5
1431 201 139 -14.1188 -113.825 0 0.5
1436 340 139 -13.1678 -113.516 0 0.5
536 201 53 14.3765 -113.908 0 0.5
541 254 53 13.4254 -113.599 0 0.5
531 53 53 19.2486 -115.491 0 4.06389
532 201 53 19.2486 -110.369 0 0.5
533 201 53 24.1206 -113.908 0 0.5
537 254 53 19.2486 -109.369 0 0.5
538 254 53 25.0717 -113.599 0 0.5
2012 201 192 32.8408 -112.226 0 0.5
2018 393 192 31.9748 -111.726 0 0.5
2006 192 192 38.4971 -115.491 0 5.31878
2007 201 192 38.4971 -108.96 0 0.5
2008 201 192 44.1534 -112.226 0 0.5
2014 393 192 45.0195 -111.726 0 0.5
1524 148 148 57.7457 -115.491 0 5.69614
1525 201 148 57.7457 -108.536 0 0.5
1531 201 148 52.3081 -111.155 0 0.5
1538 349 148 51.5263 -110.532 0 0.5
1526 201 148 63.1833 -111.155 0 0.5
1533 349 148 63.9651 -110.532 0 0.5
261 201 24 71.6221 -111.207 0 0.5
268 225 24 70.8402 -110.584 0 0.5
254 24 24 76.9942 -115.491 0 5.62161
255 201 24 76.9942 -108.62 0 0.5
256 201 24 82.3664 -111.207 0 0.5
263 225 24 83.1483 -110.584 0 0.5
649 201 63 129.332 -112.369 0 0.5
655 264 63 128.466 -111.869 0 0.5
643 63 63 134.74 -115.491 0 5.06346
644 201 63 134.74 -109.247 0 0.5
645 201 63 140.148 -112.369 0 0.5
651 264 63 141.014 -111.869 0 0.5
1695 201 163 149.533 -115.491 0 0.5
1699 364 163 148.533 -115.491 0 0.5
1691 163 163 153.988 -115.491 0 3.46975
1692 201 163 153.988 -111.035 0 0.5
1696 364 163 153.988 -110.035 0 0.5
1693 201 163 158.444 -115.491 0 0.5
1697 364 163 159.444 -115.491 0 0.5
1044 100 100 173.237 -115.491 0 2.18611
1045 201 100 173.237 -112.476 0 0.5
1047 301 100 173.237 -111.476 0 0.5
1168 201 113 -150.896 -100.499 0 0.5
1169 201 113 -157.081 -100.499 0 0.5
1173 314 113 -150.308 -101.308 0 0.5
1174 314 113 -157.669 -101.308 0 0.5
1543 201 149 -96.2428 -102.75 0 0.5
1549 350 149 -96.2428 -103.75 0 0.5
1977 201 189 15.7941 -100.997 0 0.5
1982 390 189 15.2063 -101.807 0 0.5
1976 201 189 22.703 -100.997 0 0.5
1981 390 189 23.2908 -101.807 0 0.5
2013 393 192 38.4971 -107.96 0 0.5
1532 349 148 57.7457 -107.536 0 0.5
262 225 24 76.9942 -107.62 0 0.5
450 245 44 115.491 -100.253 0 0.5
650 264 63 134.74 -108.247 0 0.5
522 201 52 153.988 -102.695 0 0.5
528 253 52 153.988 -103.695 0 0.5
1170 201 113 -158.992 -94.617 0 0.5
1175 314 113 -159.943 -94.308 0 0.5
1165 113 113 -153.988 -96.2428 0 4.18718
1167 201 113 -148.985 -94.617 0 0.5
1172 314 113 -148.034 -94.308 0 0.5
1544 201 149 -101.878 -99.4965 0 0.5
1545 201 149 -101.878 -92.9891 0 0.5
1550 350 149 -102.744 -99.9965 0 0.5
1551 350 149 -102.744 -92.4891 0 0.5
1539 149 149 -96.2428 -96.2428 0 5.29745
1541 201 149 -90.6072 -92.9891 0 0.5
1542 201 149 -90.6072 -99.4965 0 0.5
1547 350 149 -89.7412 -92.4891 0 0.5
1548 350 149 -89.7412 -99.9965 0 0.5
1978 201 189 13.6591 -94.4267 0 0.5
1983 390 189 12.708 -94.1177 0 0.5
1973 189 189 19.2486 -96.2428 0 4.73591
1975 201 189 24.838 -94.4267 0 0.5
1980 390 189 25.7891 -94.1177 0 0.5
218 20 20 38.4971 -96.2428 0 2.89583
219 201 20 38.4971 -92.4311 0 0.5
221 201 20 35.1961 -98.1487 0 0.5
224 221 20 34.3301 -98.6487 0 0.5
220 201 20 41.7981 -98.1487 0 0.5
223 221 20 42.6642 -98.6487 0 0.5
446 44 44 115.491 -96.2428 0 2.18149
447 201 44 115.491 -93.2329 0 0.5
448 201 44 115.491 -99.2527 0 0.5
449 245 44 115.491 -92.2329 0 0.5
523 201 52 148.401 -99.4687 0 0.5
524 201 52 148.401 -93.0169 0 0.5
529 253 52 147.535 -99.9687 0 0.5
530 253 52 147.535 -92.5169 0 0.5
518 52 52 153.988 -96.2428 0 5.24786
520 201 52 159.576 -93.0169 0 0.5
521 201 52 159.576 -99.4687 0 0.5
526 253 52 160.442 -92.5169 0 0.5
527 253 52 160.442 -99.9687 0 0.5
687 67 67 173.237 -96.2428 0 3.06561
688 201 67 173.237 -92.2405 0 0.5
690 201 67 169.771 -98.2439 0 0.5
693 268 67 168.905 -98.7439 0 0.5
689 201 67 176.703 -98.2439 0 0.5
692 268 67 177.569 -98.7439 0 0.5
1166 201 113 -153.988 -90.9816 0 0.5
1171 314 113 -153.988 -89.9816 0 0.5
20 203 2 -96.2428 -84.0959 0 0.5
1540 201 149 -96.2428 -89.7354 0 0.5
1546 350 149 -96.2428 -88.7354 0 0.5
1974 201 189 19.2486 -90.3657 0 0.5
1979 390 189 19.2486 -89.3657 0 0.5
222 221 20 38.4971 -91.4311 0 0.5
297 228 27 57.7457 -84.3008 0 0.5
519 201 52 153.988 -89.7911 0 0.5
525 253 52 153.988 -88.7911 0 0.5
691 268 67 173.237 -91.2405 0 0.5
15 201 2 -101.527 -80.0451 0 0.5
21 203 2 -102.393 -80.5451 0 0.5
10 2 2 -96.2428 -76.9942 0 4.93594
14 201 2 -96.2428 -83.0959 0 0.5
13 201 2 -90.9586 -80.0451 0 0.5
19 203 2 -90.0926 -80.5451 0 0.5
1249 121 121 -76.9942 -76.9942 0 3.02816
1252 201 121 -80.4239 -78.9744 0 0.5
1255 322 121 -81.2899 -79.4744 0 0.5
1251 201 121 -73.5646 -78.9744 0 0.5
1254 322 121 -72.6986 -79.4744 0 0.5
698 201 68 -61.0422 -81.5315 0 0.5
699 201 68 -63.0795 -75.2612 0 0.5
703 269 68 -61.63 -82.3405 0 0.5
694 68 68 -57.7457 -76.9942 0 4.49644
696 201 68 -52.4119 -75.2612 0 0.5
697 201 68 -54.4492 -81.5315 0 0.5
702 269 68 -53.8614 -82.3405 0 0.5
1193 115 115 -19.2486 -76.9942 0 2.23999
1195 201 115 -19.2486 -80.0698 0 0.5
1197 316 115 -19.2486 -81.0698 0 0.5
455 201 45 -4.31211 -76.9942 0 0.5
459 246 45 -5.31211 -76.9942 0 0.5
451 45 45 0 -76.9942 0 3.34165
453 201 45 4.31211 -76.9942 0 0.5
454 201 45 5.28081e-16 -81.3064 0 0.5
457 246 45 5.31211 -76.9942 0 0.5
458 246 45 6.50546e-16 -82.3064 0 0.5
1386 201 134 14.5077 -76.9942 0 0.5
1390 335 134 13.5077 -76.9942 0 0.5
1382 134 134 19.2486 -76.9942 0 3.72358
1384 201 134 23.9894 -76.9942 0 0.5
1385 201 134 19.2486 -81.7351 0 0.5
1388 335 134 24.9894 -76.9942 0 0.5
1389 335 134 19.2486 -82.7351 0 0.5
287 27 27 57.7457 -76.9942 0 5.11852
291 201 27 57.7457 -83.3008 0 0.5
292 201 27 52.284 -80.1475 0 0.5
298 228 27 51.418 -80.6475 0 0.5
290 201 27 63.2073 -80.1475 0 0.5
296 228 27 64.0734 -80.6475 0 0.5
716 201 70 72.6637 -76.9942 0 0.5
720 271 70 71.6637 -76.9942 0 0.5
712 70 70 76.9942 -76.9942 0 3.35811
714 201 70 81.3248 -76.9942 0 0.5
715 201 70 76.9942 -81.3248 0 0.5
718 271 70 82.3248 -76.9942 0 0.5
719 271 70 76.9942 -82.3248 0 0.5
1684 162 162 115.491 -76.9942 0 2.94319
1687 201 162 112.144 -78.9267 0 0.5
1690 363 162 111.278 -79.4267 0 0.5
1686 201 162 118.838 -78.9267 0 0.5
1689 363 162 119.704 -79.4267 0 0.5
1085 201 104 148.742 -75.2894 0 0.5
1080 104 104 153.988 -76.9942 0 4.41496
1083 201 104 157.231 -81.4575 0 0.5
1084 201 104 150.746 -81.4575 0 0.5
1088 305 104 157.819 -82.2665 0 0.5
1089 305 104 150.158 -82.2665 0 0.5
1082 201 104 159.235 -75.2894 0 0.5
1578 201 152 187.99 -76.9942 0 0.5
1582 353 152 186.99 -76.9942 0 0.5
1574 152 152 192.486 -76.9942 0 3.50485
1576 201 152 196.981 -76.9942 0 0.5
1577 201 152 192.486 -81.4895 0 0.5
1580 353 152 197.981 -76.9942 0 0.5
1581 353 152 192.486 -82.4895 0 0.5
16 201 2 -101.527 -73.9434 0 0.5
22 203 2 -102.393 -73.4434 0 0.5
11 201 2 -96.2428 -70.8926 0 0.5
17 203 2 -96.2428 -69.8926 0 0.5
12 201 2 -90.9586 -73.9434 0 0.5
18 203 2 -90.0926 -73.4434 0 0.5
1250 201 121 -76.9942 -73.034 0 0.5
1253 322 121 -76.9942 -72.034 0 0.5
704 269 68 -64.0306 -74.9522 0 0.5
695 201 68 -57.7457 -71.3859 0 0.5
700 269 68 -57.7457 -70.3859 0 0.5
701 269 68 -51.4608 -74.9522 0 0.5
1194 201 115 -19.2486 -73.9187 0 0.5
1196 316 115 -19.2486 -72.9187 0 0.5
452 201 45 0 -72.6821 0 0.5
456 246 45 0 -71.6821 0 0.5
1383 201 134 19.2486 -72.2534 0 0.5
1387 335 134 19.2486 -71.2534 0 0.5
288 201 27 57.7457 -70.6877 0 0.5
293 201 27 52.284 -73.841 0 0.5
294 228 27 57.7457 -69.6877 0 0.5
299 228 27 51.418 -73.341 0 0.5
289 201 27 63.2073 -73.841 0 0.5
295 228 27 64.0734 -73.341 0 0.5
713 201 70 76.9942 -72.6637 0 0.5
717 271 70 76.9942 -71.6637 0 0.5
1685 201 162 115.491 -73.1294 0 0.5
1688 363 162 115.491 -72.1294 0 0.5
1090 305 104 147.791 -74.9804 0 0.5
1081 201 104 153.988 -71.4774 0 0.5
1086 305 104 153.988 -70.4774 0 0.5
1087 305 104 160.186 -74.9804 0 0.5
1575 201 152 192.486 -72.499 0 0.5
1579 353 152 192.486 -71.499 0 0.5
348 201 33 -150.91 -61.9823 0 0.5
349 201 33 -157.067 -61.9823 0 0.5
353 234 33 -150.323 -62.7913 0 0.5
354 234 33 -157.654 -62.7913 0 0.5
92 201 9 -57.7457 -62.1435 0 0.5
96 210 9 -57.7457 -63.1435 0 0.5
1380 334 133 -42.1872 -62.8246 0 0.5
1374 201 133 -35.3948 -62.0156 0 0.5
1375 201 133 -41.5994 -62.0156 0 0.5
1379 334 133 -34.807 -62.8246 0 0.5
830 201 79 -5.22644 -60.7632 0 0.5
836 280 79 -6.09247 -61.2632 0 0.5
828 201 79 5.22644 -60.7632 0 0.5
829 201 79 7.39071e-16 -63.7807 0 0.5
834 280 79 6.09247 -61.2632 0 0.5
835 280 79 8.61536e-16 -64.7807 0 0.5
170 201 16 16.0101 -62.2031 0 0.5
175 217 16 15.4223 -63.0121 0 0.5
169 201 16 22.487 -62.2031 0 0.5
174 217 16 23.0748 -63.0121 0 0.5
1644 201 158 35.3268 -62.1093 0 0.5
1649 359 158 34.739 -62.9183 0 0.5
1643 201 158 41.6674 -62.1093 0 0.5
1648 359 158 42.2552 -62.9183 0 0.5
2061 201 197 54.5184 -62.1877 0 0.5
2066 398 197 53.9306 -62.9967 0 0.5
2060 201 197 60.973 -62.1877 0 0.5
2065 398 197 61.5608 -62.9967 0 0.5
341 201 32 73.679 -59.6598 0 0.5
344 233 32 72.813 -60.1598 0 0.5
340 201 32 80.3095 -59.6598 0 0.5
343 233 32 81.1755 -60.1598 0 0.5
1517 201 147 112.27 -62.1792 0 0.5
1522 348 147 111.682 -62.9882 0 0.5
1516 201 147 118.713 -62.1792 0 0.5
1521 348 147 119.3 -62.9882 0 0.5
1934 201 185 157.259 -62.2472 0 0.5
1935 201 185 150.718 -62.2472 0 0.5
1939 386 185 157.847 -63.0562 0 0.5
1940 386 185 150.13 -63.0562 0 0.5
248 201 23 192.486 -61.9047 0 0.5
252 224 23 192.486 -62.9047 0 0.5
350 201 33 -158.969 -56.1274 0 0.5
355 234 33 -159.92 -55.8184 0 0.5
345 33 33 -153.988 -57.7457 0 4.16545
346 201 33 -153.988 -52.5089 0 0.5
351 234 33 -153.988 -51.5089 0 0.5
347 201 33 -149.008 -56.1274 0 0.5
352 234 33 -148.057 -55.8184 0 0.5
93 201 9 -62.1435 -57.7457 0 0.5
97 210 9 -63.1435 -57.7457 0 0.5
89 9 9 -57.7457 -57.7457 0 3.41799
90 201 9 -57.7457 -53.3479 0 0.5
91 201 9 -53.3479 -57.7457 0 0.5
94 210 9 -57.7457 -52.3479 0 0.5
95 210 9 -52.3479 -57.7457 0 0.5
1376 201 133 -43.5167 -56.1147 0 0.5
1381 334 133 -44.4678 -55.8057 0 0.5
1371 133 133 -38.4971 -57.7457 0 4.20211
1372 201 133 -38.4971 -52.4677 0 0.5
1373 201 133 -33.4775 -56.1147 0 0.5
1377 334 133 -38.4971 -51.4677 0 0.5
1378 334 133 -32.5264 -55.8057 0 0.5
831 201 79 -5.22644 -54.7282 0 0.5
837 280 79 -6.09247 -54.2282 0 0.5
825 79 79 0 -57.7457 0 4.87655
826 201 79 0 -51.7107 0 0.5
827 201 79 5.22644 -54.7282 0 0.5
832 280 79 0 -50.7107 0 0.5
833 280 79 6.09247 -54.2282 0 0.5
171 201 16 14.0086 -56.0431 0 0.5
176 217 16 13.0575 -55.7341 0 0.5
166 16 16 19.2486 -57.7457 0 4.40851
167 201 16 19.2486 -52.2361 0 0.5
168 201 16 24.4885 -56.0431 0 0.5
172 217 16 19.2486 -51.2361 0 0.5
173 217 16 25.4396 -55.7341 0 0.5
1650 359 158 32.4164 -55.7699 0 0.5
1640 158 158 38.4971 -57.7457 0 4.30522
1641 201 158 38.4971 -52.352 0 0.5
1645 201 158 33.3674 -56.0789 0 0.5
1646 359 158 38.4971 -51.352 0 0.5
1642 201 158 43.6268 -56.0789 0 0.5
1647 359 158 44.5779 -55.7699 0 0.5
2057 197 197 57.7457 -57.7457 0 4.3916
2058 201 197 57.7457 -52.255 0 0.5
2062 201 197 52.5238 -56.049 0 0.5
2063 398 197 57.7457 -51.255 0 0.5
2067 398 197 51.5727 -55.74 0 0.5
2059 201 197 62.9676 -56.049 0 0.5
2064 398 197 63.9186 -55.74 0 0.5
338 32 32 76.9942 -57.7457 0 2.91049
339 201 32 76.9942 -53.9175 0 0.5
342 233 32 76.9942 -52.9175 0 0.5
1513 147 147 115.491 -57.7457 0 4.38224
1514 201 147 115.491 -52.2656 0 0.5
1518 201 147 110.279 -56.0522 0 0.5
1519 348 147 115.491 -51.2656 0 0.5
1523 348 147 109.328 -55.7432 0 0.5
1515 201 147 120.703 -56.0522 0 0.5
1520 348 147 121.654 -55.7432 0 0.5
1936 201 185 148.697 -56.0263 0 0.5
1941 386 185 147.746 -55.7173 0 0.5
1931 185 185 153.988 -57.7457 0 4.45707
1932 201 185 153.988 -52.1816 0 0.5
1937 386 185 153.988 -51.1816 0 0.5
1933 201 185 159.28 -56.0263 0 0.5
1938 386 185 160.231 -55.7173 0 0.5
249 201 23 188.327 -57.7457 0 0.5
253 224 23 187.327 -57.7457 0 0.5
245 23 23 192.486 -57.7457 0 3.20527
246 201 23 192.486 -53.5867 0 0.5
247 201 23 196.645 -57.7457 0 0.5
250 224 23 192.486 -52.5867 0 0.5
251 224 23 197.645 -57.7457 0 0.5
1711 365 164 -160.021 -41.9802 0 0.5
1704 201 164 -153.988 -44.4633 0 0.5
1710 365 164 -153.988 -45.4633 0 0.5
1709 365 164 -147.956 -41.9802 0 0.5
72 201 7 -102.124 -41.8927 0 0.5
78 208 7 -102.99 -42.3927 0 0.5
71 201 7 -96.2428 -45.2884 0 0.5
77 208 7 -96.2428 -46.2884 0 0.5
70 201 7 -90.3614 -41.8927 0 0.5
76 208 7 -89.4954 -42.3927 0 0.5
1752 201 168 -61.1377 -43.1659 0 0.5
1757 369 168 -61.7255 -43.9749 0 0.5
1751 201 168 -54.3536 -43.1659 0 0.5
1756 369 168 -53.7659 -43.9749 0 0.5
1987 201 190 157.303 -43.0598 0 0.5
1988 201 190 150.674 -43.0598 0 0.5
1992 391 190 157.891 -43.8688 0 0.5
1993 391 190 150.086 -43.8688 0 0.5
1999 201 191 169.91 -43.0762 0 0.5
2004 392 191 169.322 -43.8852 0 0.5
1998 201 191 176.564 -43.0762 0 0.5
2003 392 191 177.152 -43.8852 0 0.5
1705 201 164 -159.155 -41.4802 0 0.5
1706 201 164 -159.155 -35.514 0 0.5
1712 365 164 -160.021 -35.014 0 0.5
1700 164 164 -153.988 -38.4971 0 4.81529
1702 201 164 -148.822 -35.514 0 0.5
1703 201 164 -148.822 -41.4802 0 0.5
1708 365 164 -147.956 -35.014 0 0.5
73 201 7 -102.124 -35.1015 0 0.5
79 208 7 -102.99 -34.6015 0 0.5
67 7 7 -96.2428 -38.4971 0 5.55031
69 201 7 -90.3614 -35.1015 0 0.5
75 208 7 -89.4954 -34.6015 0 0.5
1753 201 168 -63.2341 -36.7138 0 0.5
1758 369 168 -64.1852 -36.4048 0 0.5
1748 168 168 -57.7457 -38.4971 0 4.64128
1750 201 168 -52.2572 -36.7138 0 0.5
1755 369 168 -51.3062 -36.4048 0 0.5
415 41 41 38.4971 -38.4971 0 2.94955
416 201 41 38.4971 -34.6251 0 0.5
418 201 41 35.1439 -40.4331 0 0.5
419 242 41 38.4971 -33.6251 0 0.5
421 242 41 34.2779 -40.9331 0 0.5
417 201 41 41.8504 -40.4331 0 0.5
420 242 41 42.7164 -40.9331 0 0.5
1989 201 190 148.625 -36.7543 0 0.5
1994 391 190 147.674 -36.4453 0 0.5
1984 190 190 153.988 -38.4971 0 4.52446
1986 201 190 159.352 -36.7543 0 0.5
1991 391 190 160.303 -36.4453 0 0.5
1995 191 191 173.237 -38.4971 0 4.54254
2000 201 191 167.854 -36.7481 0 0.5
2005 392 191 166.903 -36.439 0 0.5
1997 201 191 178.62 -36.7481 0 0.5
2002 392 191 179.571 -36.439 0 0.5
307 229 28 -153.988 -25.0779 0 0.5
1701 201 164 -153.988 -32.5309 0 0.5
1707 365 164 -153.988 -31.5309 0 0.5
68 201 7 -96.2428 -31.7059 0 0.5
74 208 7 -96.2428 -30.7059 0 0.5
1749 201 168 -57.7457 -32.7262 0 0.5
1754 369 168 -57.7457 -31.7262 0 0.5
1416 338 137 -19.2486 -25.2693 0 0.5
1985 201 190 153.988 -32.8574 0 0.5
1990 391 190 153.988 -31.8574 0 0.5
1996 201 191 173.237 -32.8371 0 0.5
2001 392 191 173.237 -31.8371 0 0.5
1010 201 96 192.486 -25.7923 0 0.5
1016 297 96 192.486 -26.7923 0 0.5
304 201 28 -158.818 -19.2486 0 0.5
308 229 28 -159.818 -19.2486 0 0.5
300 28 28 -153.988 -19.2486 0 3.80246
303 201 28 -153.988 -24.0779 0 0.5
302 201 28 -149.159 -19.2486 0 0.5
306 229 28 -148.159 -19.2486 0 0.5
1501 201 145 -118.452 -23.3232 0 0.5
1502 201 145 -120.281 -17.6922 0 0.5
1506 346 145 -119.04 -24.1323 0 0.5
1507 346 145 -121.232 -17.3832 0 0.5
1497 145 145 -115.491 -19.2486 0 3.98708
1499 201 145 -110.701 -17.6922 0 0.5
1500 201 145 -112.531 -23.3232 0 0.5
1504 346 145 -109.75 -17.3832 0 0.5
1505 346 145 -111.943 -24.1323 0 0.5
2056 397 196 -100.319 -21.6022 0 0.5
2050 196 196 -96.2428 -19.2486 0 2.80283
2052 201 196 -93.0322 -21.1022 0 0.5
2053 201 196 -99.4534 -21.1022 0 0.5
2055 397 196 -92.1662 -21.6022 0 0.5
1428 339 138 -83.4244 -17.1593 0 0.5
1418 138 138 -76.9942 -19.2486 0 4.63256
1422 201 138 -80.3805 -23.9094 0 0.5
1423 201 138 -82.4734 -17.4683 0 0.5
1427 339 138 -80.9683 -24.7184 0 0.5
1420 201 138 -71.5151 -17.4683 0 0.5
1421 201 138 -73.608 -23.9094 0 0.5
1425 339 138 -70.564 -17.1593 0 0.5
1426 339 138 -73.0202 -24.7184 0 0.5
1770 201 170 -61.0798 -23.8375 0 0.5
1771 201 170 -63.1403 -17.4957 0 0.5
1775 371 170 -61.6675 -24.6465 0 0.5
1776 371 170 -64.0914 -17.1867 0 0.5
1766 170 170 -57.7457 -19.2486 0 4.55342
1768 201 170 -52.351 -17.4957 0 0.5
1769 201 170 -54.4116 -23.8375 0 0.5
1773 371 170 -51.4 -17.1867 0 0.5
1774 371 170 -53.8238 -24.6465 0 0.5